0015_H2O/0015_q000_m01_k00_opt_hf_ccpv5z opt-stable                     
SP        RHF                                                         CC-pV5Z             
Number of atoms                            I                3
Info1-9                                    I   N=           9
          12          12           0           0           0         110
           1           1           2
Full Title                                 C   N=           5
0015_H2O/0015_q000_m01_k00_opt_hf_ccpv5z opt-stable         
Route                                      C   N=          10
#p hf/cc-pv5z 6d/10f scf=tight scf=(maxcycle=900,xqc,fermi) 
integral=grid=ultrafine symmetry=None density=current       
Charge                                     I                0
Multiplicity                               I                1
Number of electrons                        I               10
Number of alpha electrons                  I                5
Number of beta electrons                   I                5
Number of basis functions                  I              266
Number of independent functions            I              266
Number of point charges in /Mol/           I                0
Number of translation vectors              I                0
Atomic numbers                             I   N=           3
           8           1           1
Nuclear charges                            R   N=           3
  8.00000000E+00  1.00000000E+00  1.00000000E+00
Current cartesian coordinates              R   N=           9
 -4.44734101E+00  3.39697999E+00  0.00000000E+00 -2.58401495E+00  3.55136194E+00
  0.00000000E+00 -4.92380519E+00  5.20496220E+00  0.00000000E+00
Number of symbols in /Mol/                 I                0
Int Atom Types                             I   N=           3
           0           0           0
Force Field                                I                0
Atom Types                                 C   N=           3
                                    
MM charges                                 R   N=           3
  0.00000000E+00  0.00000000E+00  0.00000000E+00
Integer atomic weights                     I   N=           3
          16           1           1
Real atomic weights                        R   N=           3
  1.59949146E+01  1.00782504E+00  1.00782504E+00
Atom fragment info                         I   N=           3
           0           0           0
Atom residue num                           I   N=           3
           0           0           0
Nuclear spins                              I   N=           3
           0           1           1
Nuclear ZEff                               R   N=           3
 -5.60000000E+00 -1.00000000E+00 -1.00000000E+00
Nuclear ZNuc                               R   N=           3
  8.00000000E+00  1.00000000E+00  1.00000000E+00
Nuclear QMom                               R   N=           3
  0.00000000E+00  0.00000000E+00  0.00000000E+00
Nuclear GFac                               R   N=           3
  0.00000000E+00  2.79284600E+00  2.79284600E+00
MicOpt                                     I   N=           3
          -1          -1          -1
Number of residues                         I                0
Number of secondary structures             I                0
Number of contracted shells                I               51
Number of primitive shells                 I               74
Pure/Cartesian d shells                    I                1
Pure/Cartesian f shells                    I                1
Highest angular momentum                   I                5
Largest degree of contraction              I                9
Shell types                                I   N=          51
           0           0           0           0           0           0
           1           1           1           1           1           2
           2           2           2           3           3           3
           4           4           5           0           0           0
           0           0           1           1           1           1
           2           2           2           3           3           4
           0           0           0           0           0           1
           1           1           1           2           2           2
           3           3           4
Number of primitives per shell             I   N=          51
           9           7           1           1           1           1
           4           1           1           1           1           1
           1           1           1           1           1           1
           1           1           1           4           1           1
           1           1           1           1           1           1
           1           1           1           1           1           1
           4           1           1           1           1           1
           1           1           1           1           1           1
           1           1           1
Shell to atom map                          I   N=          51
           1           1           1           1           1           1
           1           1           1           1           1           1
           1           1           1           1           1           1
           1           1           1           2           2           2
           2           2           2           2           2           2
           2           2           2           2           2           2
           3           3           3           3           3           3
           3           3           3           3           3           3
           3           3           3
Primitive exponents                        R   N=          74
  1.64200000E+05  2.45900000E+04  5.59200000E+03  1.58200000E+03  5.16100000E+02
  1.87200000E+02  7.39300000E+01  3.12200000E+01  1.38100000E+01  1.58200000E+03
  5.16100000E+02  1.87200000E+02  7.39300000E+01  3.12200000E+01  1.38100000E+01
  6.25600000E+00  2.77600000E+00  1.13800000E+00  4.60000000E-01  1.82900000E-01
  1.95500000E+02  4.61600000E+01  1.45800000E+01  5.29600000E+00  2.09400000E+00
  8.47100000E-01  3.36800000E-01  1.28500000E-01  5.87900000E+00  2.30700000E+00
  9.05000000E-01  3.55000000E-01  4.01600000E+00  1.55400000E+00  6.01000000E-01
  3.35000000E+00  1.18900000E+00  2.31900000E+00  4.02000000E+02  6.02400000E+01
  1.37300000E+01  3.90500000E+00  1.28300000E+00  4.65500000E-01  1.81100000E-01
  7.27900000E-02  4.51600000E+00  1.71200000E+00  6.49000000E-01  2.46000000E-01
  2.95000000E+00  1.20600000E+00  4.93000000E-01  2.50600000E+00  8.75000000E-01
  2.35800000E+00  4.02000000E+02  6.02400000E+01  1.37300000E+01  3.90500000E+00
  1.28300000E+00  4.65500000E-01  1.81100000E-01  7.27900000E-02  4.51600000E+00
  1.71200000E+00  6.49000000E-01  2.46000000E-01  2.95000000E+00  1.20600000E+00
  4.93000000E-01  2.50600000E+00  8.75000000E-01  2.35800000E+00
Contraction coefficients                   R   N=          74
  4.49112566E-05  3.61624169E-04  1.88339428E-03  7.88317089E-03  2.79922597E-02
  8.37142246E-02  2.06350654E-01  3.76897488E-01  4.14901402E-01 -4.28453395E-05
 -2.71439680E-04 -2.95026082E-03 -1.63349789E-02 -8.52526950E-02 -2.93974897E-01
 -6.54266624E-01  1.00000000E+00  1.00000000E+00  1.00000000E+00  1.00000000E+00
  6.27445151E-03  5.04963483E-02  2.38934941E-01  7.88961016E-01  1.00000000E+00
  1.00000000E+00  1.00000000E+00  1.00000000E+00  1.00000000E+00  1.00000000E+00
  1.00000000E+00  1.00000000E+00  1.00000000E+00  1.00000000E+00  1.00000000E+00
  1.00000000E+00  1.00000000E+00  1.00000000E+00  5.08810428E-03  3.94829597E-02
  2.04271885E-01  8.18437075E-01  1.00000000E+00  1.00000000E+00  1.00000000E+00
  1.00000000E+00  1.00000000E+00  1.00000000E+00  1.00000000E+00  1.00000000E+00
  1.00000000E+00  1.00000000E+00  1.00000000E+00  1.00000000E+00  1.00000000E+00
  1.00000000E+00  5.08810428E-03  3.94829597E-02  2.04271885E-01  8.18437075E-01
  1.00000000E+00  1.00000000E+00  1.00000000E+00  1.00000000E+00  1.00000000E+00
  1.00000000E+00  1.00000000E+00  1.00000000E+00  1.00000000E+00  1.00000000E+00
  1.00000000E+00  1.00000000E+00  1.00000000E+00  1.00000000E+00
Coordinates of each shell                  R   N=         153
 -4.44734101E+00  3.39697999E+00  0.00000000E+00 -4.44734101E+00  3.39697999E+00
  0.00000000E+00 -4.44734101E+00  3.39697999E+00  0.00000000E+00 -4.44734101E+00
  3.39697999E+00  0.00000000E+00 -4.44734101E+00  3.39697999E+00  0.00000000E+00
 -4.44734101E+00  3.39697999E+00  0.00000000E+00 -4.44734101E+00  3.39697999E+00
  0.00000000E+00 -4.44734101E+00  3.39697999E+00  0.00000000E+00 -4.44734101E+00
  3.39697999E+00  0.00000000E+00 -4.44734101E+00  3.39697999E+00  0.00000000E+00
 -4.44734101E+00  3.39697999E+00  0.00000000E+00 -4.44734101E+00  3.39697999E+00
  0.00000000E+00 -4.44734101E+00  3.39697999E+00  0.00000000E+00 -4.44734101E+00
  3.39697999E+00  0.00000000E+00 -4.44734101E+00  3.39697999E+00  0.00000000E+00
 -4.44734101E+00  3.39697999E+00  0.00000000E+00 -4.44734101E+00  3.39697999E+00
  0.00000000E+00 -4.44734101E+00  3.39697999E+00  0.00000000E+00 -4.44734101E+00
  3.39697999E+00  0.00000000E+00 -4.44734101E+00  3.39697999E+00  0.00000000E+00
 -4.44734101E+00  3.39697999E+00  0.00000000E+00 -2.58401495E+00  3.55136194E+00
  0.00000000E+00 -2.58401495E+00  3.55136194E+00  0.00000000E+00 -2.58401495E+00
  3.55136194E+00  0.00000000E+00 -2.58401495E+00  3.55136194E+00  0.00000000E+00
 -2.58401495E+00  3.55136194E+00  0.00000000E+00 -2.58401495E+00  3.55136194E+00
  0.00000000E+00 -2.58401495E+00  3.55136194E+00  0.00000000E+00 -2.58401495E+00
  3.55136194E+00  0.00000000E+00 -2.58401495E+00  3.55136194E+00  0.00000000E+00
 -2.58401495E+00  3.55136194E+00  0.00000000E+00 -2.58401495E+00  3.55136194E+00
  0.00000000E+00 -2.58401495E+00  3.55136194E+00  0.00000000E+00 -2.58401495E+00
  3.55136194E+00  0.00000000E+00 -2.58401495E+00  3.55136194E+00  0.00000000E+00
 -2.58401495E+00  3.55136194E+00  0.00000000E+00 -4.92380519E+00  5.20496220E+00
  0.00000000E+00 -4.92380519E+00  5.20496220E+00  0.00000000E+00 -4.92380519E+00
  5.20496220E+00  0.00000000E+00 -4.92380519E+00  5.20496220E+00  0.00000000E+00
 -4.92380519E+00  5.20496220E+00  0.00000000E+00 -4.92380519E+00  5.20496220E+00
  0.00000000E+00 -4.92380519E+00  5.20496220E+00  0.00000000E+00 -4.92380519E+00
  5.20496220E+00  0.00000000E+00 -4.92380519E+00  5.20496220E+00  0.00000000E+00
 -4.92380519E+00  5.20496220E+00  0.00000000E+00 -4.92380519E+00  5.20496220E+00
  0.00000000E+00 -4.92380519E+00  5.20496220E+00  0.00000000E+00 -4.92380519E+00
  5.20496220E+00  0.00000000E+00 -4.92380519E+00  5.20496220E+00  0.00000000E+00
 -4.92380519E+00  5.20496220E+00  0.00000000E+00
Num ILSW                                   I              100
ILSW                                       I   N=         100
           0           0           0           0           0           0
           0           0           0           0           0          -1
           5           0           0           1          -1           0
           0           0           0           0           1           0
           1           1           0           0           0           0
           0           0      100000           0          -1           0
           0           0           0           0           0           0
           0           0           0           1           0           0
           0 -2000000000           1           0           0           0
           0           0           4          52           0           0
           0           0           0           0           0           0
           0           0           0           3           0           1
           0           0           0           0           0           0
           0           0           0           0           0           0
           0           0           0           0           0           0
           0           0           0           0           0           0
           0           0           0           0
Num RLSW                                   I               52
RLSW                                       R   N=          52
  1.00000000E+00  1.00000000E+00  1.00000000E+00  1.00000000E+00  1.00000000E+00
  0.00000000E+00  0.00000000E+00  1.00000000E+00  0.00000000E+00  0.00000000E+00
  0.00000000E+00  0.00000000E+00  1.00000000E+00  0.00000000E+00  0.00000000E+00
  0.00000000E+00  0.00000000E+00  1.00000000E+00  0.00000000E+00  0.00000000E+00
  0.00000000E+00  0.00000000E+00  1.00000000E+00  0.00000000E+00  0.00000000E+00
  0.00000000E+00  0.00000000E+00  1.00000000E+00  0.00000000E+00  0.00000000E+00
  0.00000000E+00  0.00000000E+00  1.00000000E+00  0.00000000E+00  0.00000000E+00
  0.00000000E+00  0.00000000E+00  0.00000000E+00  1.00000000E+00  1.00000000E+00
  0.00000000E+00  1.00000000E+00  0.00000000E+00  0.00000000E+00  0.00000000E+00
  0.00000000E+00  0.00000000E+00  0.00000000E+00  0.00000000E+00  0.00000000E+00
  0.00000000E+00  0.00000000E+00
MxBond                                     I                2
NBond                                      I   N=           3
           2           1           1
IBond                                      I   N=           6
           2           3           1           0           1           0
RBond                                      R   N=           6
  1.00000000E+00  1.00000000E+00  1.00000000E+00  0.00000000E+00  1.00000000E+00
  0.00000000E+00
Virial Ratio                               R      2.002273480157625E+00
SCF Energy                                 R     -7.606244166577918E+01
Total Energy                               R     -7.606244166577918E+01
RMS Density                                R      8.588277688666883E-09
Job Status                                 I                3
Nuclear derivative order                   I                0
External E-field                           R   N=          35
  0.00000000E+00  0.00000000E+00  0.00000000E+00  0.00000000E+00  0.00000000E+00
  0.00000000E+00  0.00000000E+00  0.00000000E+00  0.00000000E+00  0.00000000E+00
  0.00000000E+00  0.00000000E+00  0.00000000E+00  0.00000000E+00  0.00000000E+00
  0.00000000E+00  0.00000000E+00  0.00000000E+00  0.00000000E+00  0.00000000E+00
  0.00000000E+00  0.00000000E+00  0.00000000E+00  0.00000000E+00  0.00000000E+00
  0.00000000E+00  0.00000000E+00  0.00000000E+00  0.00000000E+00  0.00000000E+00
  0.00000000E+00  0.00000000E+00  0.00000000E+00  0.00000000E+00  0.00000000E+00
IOpCl                                      I                0
IROHF                                      I                0
Alpha Orbital Energies                     R   N=         266
 -2.05707117E+01 -1.33914294E+00 -6.91497273E-01 -5.86939921E-01 -5.08985496E-01
  8.55261993E-02  1.30540173E-01  2.96023602E-01  3.21596403E-01  3.35925167E-01
  3.78553101E-01  4.52901823E-01  4.78113601E-01  5.44605192E-01  5.73234702E-01
  6.19243964E-01  7.33023693E-01  7.75792282E-01  8.15851236E-01  9.21236317E-01
  9.77971004E-01  1.07601378E+00  1.13033505E+00  1.16821400E+00  1.18141969E+00
  1.19898161E+00  1.21045284E+00  1.43099711E+00  1.51751480E+00  1.54054382E+00
  1.62956511E+00  1.66374212E+00  1.74858363E+00  1.77198338E+00  1.82501418E+00
  1.85968040E+00  1.87166350E+00  1.87695749E+00  1.95132039E+00  2.07793525E+00
  2.07833589E+00  2.15186894E+00  2.24284762E+00  2.27883984E+00  2.45928213E+00
  2.47969828E+00  2.51227518E+00  2.61422679E+00  2.63516932E+00  2.70347722E+00
  2.80284218E+00  2.80710696E+00  2.84713238E+00  3.00974002E+00  3.05179563E+00
  3.27675384E+00  3.30627902E+00  3.32896127E+00  3.43720199E+00  3.47213022E+00
  3.54367388E+00  3.62443167E+00  3.86077971E+00  3.98572748E+00  4.07298300E+00
  4.24216042E+00  4.25133448E+00  4.31736039E+00  4.34986157E+00  4.37220753E+00
  4.43906394E+00  4.47352868E+00  4.52601839E+00  4.52919163E+00  4.55543049E+00
  4.60534151E+00  4.66459746E+00  4.66567175E+00  4.68622077E+00  4.79860489E+00
  4.87554076E+00  4.89687623E+00  4.96664777E+00  5.03583406E+00  5.05737499E+00
  5.15097600E+00  5.15786321E+00  5.17262223E+00  5.34335723E+00  5.57207102E+00
  5.64249050E+00  5.65887897E+00  5.77030405E+00  5.92453262E+00  6.08054699E+00
  6.13657180E+00  6.41549018E+00  6.58810361E+00  6.62479725E+00  6.74275812E+00
  6.74314489E+00  6.77780820E+00  6.83343432E+00  6.85256901E+00  6.94704090E+00
  7.00994706E+00  7.36526306E+00  7.41784646E+00  7.45779985E+00  7.52521127E+00
  7.57870982E+00  8.00868159E+00  8.54334550E+00  8.67228101E+00  8.84753301E+00
  8.95149370E+00  9.01080710E+00  9.08065645E+00  9.44879622E+00  9.45779352E+00
  9.51485505E+00  9.60680594E+00  9.73540071E+00  9.79892826E+00  9.86188673E+00
  9.86560604E+00  9.88237054E+00  9.93769187E+00  1.01063905E+01  1.01424651E+01
  1.01463128E+01  1.01930298E+01  1.03068111E+01  1.04826756E+01  1.05225015E+01
  1.05463928E+01  1.11816108E+01  1.12992079E+01  1.14639920E+01  1.17276285E+01
  1.17433940E+01  1.19266943E+01  1.19732811E+01  1.20475810E+01  1.22364403E+01
  1.22898417E+01  1.23021402E+01  1.23490775E+01  1.24014934E+01  1.25553060E+01
  1.25858720E+01  1.26190053E+01  1.26257037E+01  1.26852003E+01  1.27674291E+01
  1.27968033E+01  1.28157197E+01  1.30785901E+01  1.30978902E+01  1.32235124E+01
  1.32924079E+01  1.34058416E+01  1.36000895E+01  1.36610528E+01  1.39057190E+01
  1.39152666E+01  1.40486549E+01  1.41433670E+01  1.41625452E+01  1.43721385E+01
  1.44801786E+01  1.47101104E+01  1.48557665E+01  1.49991738E+01  1.52090651E+01
  1.52878946E+01  1.57309869E+01  1.57617765E+01  1.57862871E+01  1.58990052E+01
  1.60178386E+01  1.61523452E+01  1.62573137E+01  1.64993754E+01  1.67932038E+01
  1.73360669E+01  1.75234085E+01  1.77047849E+01  1.82555462E+01  1.84207563E+01
  1.85314459E+01  1.85613850E+01  1.85713731E+01  1.85771662E+01  1.86828908E+01
  1.88748460E+01  1.88955620E+01  1.90390306E+01  1.91180518E+01  1.91660072E+01
  1.91782041E+01  1.92225351E+01  1.95946025E+01  1.99270436E+01  1.99938028E+01
  2.00392529E+01  2.00874496E+01  2.01006083E+01  2.01504816E+01  2.02787605E+01
  2.04648101E+01  2.04671056E+01  2.05561932E+01  2.06172057E+01  2.11076384E+01
  2.11313503E+01  2.14917042E+01  2.16731348E+01  2.17036677E+01  2.17691281E+01
  2.19058279E+01  2.19476884E+01  2.22045494E+01  2.31111330E+01  2.31228046E+01
  2.32558501E+01  2.35255790E+01  2.36649134E+01  2.36754203E+01  2.39650794E+01
  2.41944387E+01  2.49636773E+01  2.51334545E+01  2.53524876E+01  2.61948504E+01
  2.62955007E+01  2.67087050E+01  2.69808623E+01  2.70460307E+01  2.78618520E+01
  2.87610915E+01  3.30834522E+01  3.32059021E+01  3.33464708E+01  3.35260148E+01
  3.43295228E+01  3.43970458E+01  4.09879349E+01  4.15400852E+01  4.35293248E+01
  4.45561015E+01  4.60228807E+01  6.95037225E+01  6.97892703E+01  6.99694063E+01
  7.35517598E+01 -2.05707117E+01 -1.33914294E+00 -6.91497273E-01 -5.86939921E-01
 -5.08985496E-01  8.55261993E-02  1.30540173E-01  2.96023602E-01  3.21596403E-01
  3.35925167E-01
Alpha MO coefficients                      R   N=       70756
  5.71296974E-01 -4.26095931E-01  4.46554165E-02  2.78268795E-02  2.35611127E-02
  1.73536609E-03  9.81199640E-04  1.38836537E-03 -7.02835078E-15  6.49917981E-04
  9.19612664E-04  2.86167096E-13 -2.48701749E-03 -3.51904832E-03 -6.97856145E-13
 -1.14620584E-03 -1.62184373E-03 -1.73150951E-13  8.41033960E-05  1.19003552E-04
  1.07509515E-14  5.80574069E-04  4.38535905E-04 -4.92529143E-04 -2.31577160E-04
 -1.48373430E-14  1.13150514E-14 -6.37060013E-03 -5.79627524E-03 -2.03270236E-03
  9.36371751E-04  7.56391971E-14 -5.92221982E-14 -1.90654473E-02 -1.93670432E-02
 -2.20824335E-02 -4.91718049E-04 -8.59140933E-14  7.24854915E-14 -1.58143622E-03
 -1.58491138E-03 -1.52593475E-03 -5.66585558E-06 -1.51760008E-15 -6.19833433E-15
 -2.30145249E-04 -2.41994835E-04 -7.78836072E-14  2.91602003E-05 -7.09717585E-05
 -3.31897147E-14 -3.26490053E-05 -4.61972733E-05 -3.20257145E-14  1.31791390E-16
  3.41310640E-03  4.09186419E-03  6.30270832E-13  3.61800856E-04  1.50148986E-03
  2.69245662E-13  9.01265230E-04  1.27526079E-03  2.60862072E-13 -1.39002408E-15
  1.11527145E-03  1.45634128E-03  1.50347844E-13  3.06556718E-04  5.97087404E-04
  6.24670412E-14  3.98658002E-04  5.64088022E-04  6.48956193E-14  9.19733081E-16
 -4.92156747E-04  1.41822876E-14  1.94616515E-04  1.46658752E-14  1.17598537E-03
 -1.97378578E-14 -1.31352419E-04 -9.04880050E-15 -2.95448449E-04  2.75181699E-04
  6.49165254E-15  7.59730991E-04 -1.97364581E-14 -2.86399535E-04  1.44855487E-03
  7.65153713E-03 -2.76057809E-14  4.10330531E-03 -3.18976999E-14  6.64080724E-03
  3.09051253E-14  5.80332142E-05  1.51792874E-14  4.60846838E-06  4.06771056E-03
 -1.35581775E-14  3.71073074E-03  2.68577767E-14  1.65954579E-04  6.56090616E-03
 -2.31079475E-13 -2.17650954E-04 -9.41824148E-14 -4.48590340E-04 -6.78305394E-14
 -1.30278266E-03 -1.53820488E-04  4.90625594E-16 -1.92028808E-05  8.43131778E-16
  4.84664358E-05 -9.70327558E-14 -1.57393181E-04 -4.05583231E-14 -5.10110641E-04
 -3.85628632E-04  3.04761560E-16 -2.27375701E-04 -7.24850209E-14 -2.95450473E-04
 -1.19709799E-03  3.43271310E-05  2.18808631E-04 -1.31970479E-03  1.12428209E-05
 -3.39897101E-05  2.53952211E-05  3.76616137E-06 -4.26350819E-15 -4.03373682E-05
 -1.36135295E-06  8.03617774E-15  7.98337999E-04  8.51166464E-05  2.43120339E-14
 -7.48181954E-05  1.57058635E-06  4.75647989E-15 -1.00969332E-05 -4.02150308E-06
 -3.71858987E-06  4.65094101E-06  1.05271866E-15  1.23234402E-16 -8.73278480E-05
  1.15335945E-04  1.12798823E-04 -6.14227315E-05 -6.22796868E-15 -8.21116063E-16
  9.71850646E-05  2.51700896E-04  2.54140818E-04 -1.86193834E-05 -5.46145743E-15
 -1.03140220E-18  4.85284563E-05  1.01213419E-05 -7.39910853E-15  2.31239598E-05
 -7.21154551E-06 -2.91135135E-15  2.94765436E-05  4.35105874E-06 -3.27716198E-15
  8.61526845E-17 -4.04306635E-05 -1.43629655E-05 -1.03710933E-14 -5.29124908E-05
  2.33168601E-05  1.01090724E-15 -4.96373264E-05 -2.67631066E-06 -4.67097268E-15
  1.28490472E-16 -3.73452985E-06  2.31983277E-16 -2.42342958E-06  2.37864765E-16
 -6.65375392E-06  1.31998428E-15 -1.68211353E-06  5.43745249E-16 -5.97761901E-07
 -3.48587078E-05  7.93734551E-18 -2.59554705E-05 -8.41952787E-16  2.03505269E-05
 -1.82632956E-05  3.43271310E-05  2.18808628E-04 -1.31970479E-03  1.12428204E-05
 -3.39897105E-05 -4.92695971E-06  2.51957620E-05 -8.78949176E-16  1.21816238E-05
 -3.84781114E-05 -5.76567870E-15 -1.86256213E-04  7.80959043E-04  3.87320234E-14
  2.64553257E-05 -7.00024613E-05  4.45007731E-15 -7.23326760E-06 -6.88516836E-06
 -3.71858991E-06  5.82189637E-06 -3.68398594E-16  5.71710762E-16  1.26229568E-04
 -9.82214745E-05  1.12798823E-04  2.59010894E-05  3.65850843E-15 -5.06676863E-15
  2.44631360E-04  1.04254598E-04  2.54140817E-04  4.16715408E-05  3.24826926E-17
 -3.86983931E-15 -1.03579109E-05  4.16722241E-05 -3.48218863E-15 -9.55333843E-06
  2.93872965E-05 -1.56771262E-15 -5.73798445E-06  2.92382281E-05 -1.51631023E-15
  1.80352871E-17  3.00435745E-05 -3.13618168E-05 -1.80002487E-14 -7.23513653E-07
 -5.75824273E-05 -7.71426127E-15  1.40464778E-05 -4.76835735E-05 -3.59515471E-15
 -1.31933265E-15 -3.73452986E-06  6.11969992E-17 -3.21613057E-05  2.22235797E-16
 -8.28160552E-06 -7.55003166E-16  1.04777308E-05 -3.79090170E-16  8.32456821E-07
 -5.12083144E-06 -4.04392716E-17 -2.67738099E-05 -7.34640000E-16  2.00412333E-05
 -1.57037231E-05 -1.16775662E-01  2.01204134E-01 -4.99087408E-03  3.73960096E-01
  4.10399699E-01  1.33584782E-01  9.45335604E-03  1.33761894E-02  3.11191434E-15
  1.57705908E-02  2.23148698E-02  5.59643327E-15  2.31200478E-02  3.27141109E-02
 -3.38788767E-14  1.43940744E-02  2.03671442E-02 -1.36107180E-13  4.97175435E-04
  7.03486970E-04  1.55421298E-14  1.69817262E-03  1.75101540E-03  1.38427257E-03
  8.61541607E-05  3.35569643E-15  5.46126149E-17 -5.65658513E-03 -5.93193359E-03
 -8.04527036E-03 -4.48924511E-04 -1.43985407E-14 -1.63690595E-15 -4.68405812E-04
 -1.17562455E-03 -1.39331488E-02 -1.15304020E-03 -3.96733800E-15  2.09453193E-15
  8.98595283E-03  9.21663897E-03  8.57485764E-03  3.76107651E-04 -7.83904173E-15
 -1.49148174E-14  5.23698494E-04  7.34420255E-04  7.31832247E-15  2.23790374E-04
  3.25505471E-04  7.04175947E-15  2.59890301E-04  3.67736270E-04  2.01276057E-15
 -1.07358043E-16  4.87954928E-03  4.24308741E-03  9.50412594E-15 -2.01988694E-03
  7.12455030E-04 -2.28969812E-14 -7.59059586E-04 -1.07404447E-03  1.41344223E-14
  8.14438644E-16  9.58186955E-04  5.96794772E-04  6.43041623E-14 -7.69923293E-04
 -7.10996138E-05  2.12131872E-14 -3.69440960E-04 -5.22746864E-04  1.62307097E-14
  1.74936799E-15  3.51814686E-03 -3.80811562E-17  1.98222539E-03  2.72129893E-16
  3.57720634E-03  5.58464912E-15  5.63993466E-05  2.39871611E-15  1.09383892E-05
  1.94763277E-03  7.13157358E-17  1.92091930E-03  5.91555041E-15  1.66994318E-04
  3.49385289E-03  8.86034849E-03 -1.69684536E-15  4.20438811E-03 -5.29876816E-15
  6.75959773E-03  1.28654352E-15  5.75282364E-05  1.84792432E-15 -1.01394111E-04
  4.16910309E-03 -1.90859335E-15  3.41164909E-03 -5.19501514E-15  4.23594519E-04
  6.60866138E-03  8.68054305E-15  5.41029120E-04  7.32797812E-16  1.45913338E-04
 -2.30237365E-15 -6.79691498E-04  3.82361578E-04 -2.86828101E-16  3.00008758E-04
  1.10502704E-17  6.12538667E-04  1.23989138E-14  1.54779504E-04  4.07022508E-15
 -1.76867515E-04 -3.89594634E-05 -4.91661193E-16  1.69675613E-04  1.37624592E-14
  7.94550310E-05 -1.08426215E-03  2.13667680E-02  4.74859432E-02  7.48041109E-02
  2.27418108E-02  2.18501324E-03 -3.48153072E-03 -1.11876440E-04  6.84516123E-16
  1.08672156E-04  8.03699746E-05 -4.35202925E-15 -1.74093964E-02 -3.28648106E-05
  2.08539720E-14 -4.56922510E-03  9.06979470E-04  9.14646320E-15  1.32874315E-03
  1.25887231E-04  1.39963722E-04  6.17937280E-05  5.15369653E-16  5.33211788E-17
  2.94533607E-03  9.69521696E-05 -2.49137485E-04  5.93705117E-06 -6.63089382E-15
 -5.37212841E-16  1.61747975E-03 -6.47088457E-04 -7.64851684E-04 -2.52154413E-04
 -1.15627724E-14 -2.77520936E-16 -3.52387441E-03 -1.04369110E-04  1.59068334E-16
 -1.11342860E-03 -1.26241369E-04  1.12984243E-15 -1.09897056E-03 -4.05979607E-05
  5.44895263E-17  1.26819215E-16  5.59906673E-04  1.74266476E-05 -5.83960138E-15
  3.96182117E-04  3.90283649E-05  5.58006774E-15  5.00080286E-04 -3.60865399E-05
 -2.42100024E-15  7.97956238E-16  1.11715411E-04  5.99649118E-17  3.17511899E-05
  1.70886277E-17  8.99542350E-06  9.50506802E-16  1.04756054E-05  3.60107152E-16
  1.35817988E-05 -3.17336326E-05 -2.47962684E-16 -4.16825077E-05 -8.18118078E-16
  6.72408308E-05  3.89121464E-04  2.13667681E-02  4.74859434E-02  7.48041109E-02
  2.27418108E-02  2.18501324E-03  1.05669945E-03 -3.31918045E-03 -1.53516070E-15
  3.94845631E-05  1.29266929E-04  5.70461502E-15  5.78039612E-03 -1.64217899E-02
  8.16111476E-15  2.38019514E-03 -4.00438520E-03  1.21851626E-14  2.26239835E-04
  1.22839055E-03  1.39963722E-04 -3.89020872E-04 -3.61675336E-17  2.03824147E-16
  4.11103357E-04  2.63118488E-03 -2.49137481E-04 -1.03031298E-03  2.56114036E-16
 -2.88426633E-15 -2.57328340E-04  1.22771964E-03 -7.64851678E-04 -1.01876513E-03
  4.01382648E-15 -1.26984249E-14  7.52475655E-04 -3.30073606E-03 -2.49684678E-15
  6.89286793E-04 -1.16663933E-03 -1.06506098E-15  3.28574587E-04 -1.04948714E-03
 -8.60150855E-16  2.10304536E-18 -2.59828070E-04  5.88564673E-04  1.66402191E-15
  2.44230567E-05  3.12754023E-04  9.56261081E-16 -2.00946895E-04  4.59350483E-04
  6.02622496E-15 -1.41313410E-15  1.11715410E-04  5.34273104E-16 -1.89504251E-05
 -3.26382142E-16  3.44251899E-04 -1.99506045E-17  3.12075414E-05  1.92897693E-16
 -1.53344299E-04  1.89679822E-05  2.01261427E-16  2.18301809E-05  2.12573260E-18
  3.53211487E-05 -1.84473843E-05 -5.88212368E-11  1.05524104E-10 -1.72163004E-11
  1.57212812E-10  3.86314917E-10  4.13923208E-10  8.82604761E-02 -6.23763379E-02
 -1.24023070E-15  1.55754299E-01 -1.10076256E-01  3.60529164E-14  2.06658123E-01
 -1.46051523E-01 -8.42603522E-14  1.49125354E-01 -1.05391381E-01 -4.61431743E-14
  4.77160161E-02 -3.37223464E-02  5.41998901E-15  2.69142567E-03 -2.69142567E-03
  1.91995113E-12  1.10052638E-03  5.79222121E-15 -1.92020154E-15  1.16686185E-04
 -1.16686194E-04 -4.67195288E-12  4.77130869E-05 -2.85477616E-14  9.25766945E-15
  2.47115919E-02 -2.47115920E-02 -2.10683513E-11  1.01045922E-02  2.66484006E-14
 -3.42040501E-15  7.48949724E-03 -7.48949729E-03 -1.88342740E-11  3.06246217E-03
 -4.63379634E-16 -1.11260239E-15  2.72976585E-04 -1.50311036E-04 -8.10088489E-15
  1.48927220E-04 -1.62418315E-04 -2.81013357E-15 -2.20620311E-05  1.55919033E-05
 -3.99868706E-15  1.11651908E-16  1.73821701E-02 -1.33955079E-02  7.14573620E-14
  7.07349923E-03 -3.50848607E-03  2.68951940E-14  2.04399706E-03 -1.44455432E-03
  3.41961965E-14 -6.49905524E-16  1.20162705E-02 -8.43508860E-03  3.08621058E-14
  5.40986353E-03 -3.90001768E-03  1.39071458E-14  3.22387588E-03 -2.27841024E-03
  1.20625004E-14  5.98032202E-16  2.26178323E-12 -3.35367013E-15 -7.58847553E-04
 -3.41245083E-15 -3.01318320E-03  8.04154384E-15  3.10293448E-04  3.50867021E-15
  9.13116949E-04  7.58847553E-04 -1.44811674E-15 -8.76570937E-05  8.06563175E-15
  7.26787728E-04  3.11298518E-03  3.77046787E-12  7.71025995E-16  1.38500140E-03
  2.81181613E-16  3.43551994E-03 -9.88246942E-15 -5.66328320E-04 -4.12322527E-15
 -4.16199294E-04 -1.38500140E-03  1.97845656E-16 -4.14287425E-04 -1.04568659E-14
 -1.29683373E-03 -2.96383295E-03 -2.36826764E-14  3.83667426E-06 -1.09830208E-14
  7.85306995E-04 -9.08863913E-15  3.51352612E-03 -5.42876649E-06  1.63437595E-16
 -3.79773686E-04  2.67696685E-16 -1.10534815E-03 -8.76917275E-15  1.43928975E-04
 -4.24264854E-15  9.66988725E-04 -9.79912407E-04  1.68119128E-16 -1.78173786E-03
 -5.77923429E-15  3.20077541E-04 -4.20109396E-03  3.33125514E-02  8.62701629E-02
  1.41613394E-01  1.30961820E-01  1.59939433E-02 -3.19633260E-03 -1.33326001E-03
 -5.95604865E-16 -6.47353695E-04  2.27817163E-05  2.17491391E-15 -1.58266541E-02