0015_H2O/0015_q000_m01_k00_opt_hf_ccpv5z opt-stable                     
Force     RHF                                                         CC-pV5Z             
Number of atoms                            I                3
Info1-9                                    I   N=           9
          13           9           0           0           0         100
           5           1           2
Full Title                                 C   N=           5
0015_H2O/0015_q000_m01_k00_opt_hf_ccpv5z opt-stable         
Route                                      C   N=          15
#p hf/cc-pv5z 5d/7f force guess=read geom=check scf=(maxcycl
e=900,verytightlineq,xqc) integral=grid=ultrafine symmetry=N
one density=current pop=(cm5,hlygat,mbs,npa) output=wfx     
Charge                                     I                0
Multiplicity                               I                1
Number of electrons                        I               10
Number of alpha electrons                  I                5
Number of beta electrons                   I                5
Number of basis functions                  I              201
Number of independent functions            I              201
Number of point charges in /Mol/           I                0
Number of translation vectors              I                0
Atomic numbers                             I   N=           3
           8           1           1
Nuclear charges                            R   N=           3
  8.00000000E+00  1.00000000E+00  1.00000000E+00
Current cartesian coordinates              R   N=           9
 -4.44734101E+00  3.39697999E+00  0.00000000E+00 -2.58401495E+00  3.55136194E+00
  0.00000000E+00 -4.92380519E+00  5.20496220E+00  0.00000000E+00
Number of symbols in /Mol/                 I                0
Int Atom Types                             I   N=           3
           0           0           0
Force Field                                I                0
Atom Types                                 C   N=           3
                                    
MM charges                                 R   N=           3
  0.00000000E+00  0.00000000E+00  0.00000000E+00
Integer atomic weights                     I   N=           3
          16           1           1
Real atomic weights                        R   N=           3
  1.59949146E+01  1.00782504E+00  1.00782504E+00
Atom fragment info                         I   N=           3
           0           0           0
Atom residue num                           I   N=           3
           0           0           0
Nuclear spins                              I   N=           3
           0           1           1
Nuclear ZEff                               R   N=           3
 -5.60000000E+00 -1.00000000E+00 -1.00000000E+00
Nuclear ZNuc                               R   N=           3
  8.00000000E+00  1.00000000E+00  1.00000000E+00
Nuclear QMom                               R   N=           3
  0.00000000E+00  0.00000000E+00  0.00000000E+00
Nuclear GFac                               R   N=           3
  0.00000000E+00  2.79284600E+00  2.79284600E+00
MicOpt                                     I   N=           3
          -1          -1          -1
Number of residues                         I                0
Number of secondary structures             I                0
Number of contracted shells                I               51
Number of primitive shells                 I               74
Pure/Cartesian d shells                    I                0
Pure/Cartesian f shells                    I                0
Highest angular momentum                   I                5
Largest degree of contraction              I                9
Shell types                                I   N=          51
           0           0           0           0           0           0
           1           1           1           1           1          -2
          -2          -2          -2          -3          -3          -3
          -4          -4          -5           0           0           0
           0           0           1           1           1           1
          -2          -2          -2          -3          -3          -4
           0           0           0           0           0           1
           1           1           1          -2          -2          -2
          -3          -3          -4
Number of primitives per shell             I   N=          51
           9           7           1           1           1           1
           4           1           1           1           1           1
           1           1           1           1           1           1
           1           1           1           4           1           1
           1           1           1           1           1           1
           1           1           1           1           1           1
           4           1           1           1           1           1
           1           1           1           1           1           1
           1           1           1
Shell to atom map                          I   N=          51
           1           1           1           1           1           1
           1           1           1           1           1           1
           1           1           1           1           1           1
           1           1           1           2           2           2
           2           2           2           2           2           2
           2           2           2           2           2           2
           3           3           3           3           3           3
           3           3           3           3           3           3
           3           3           3
Primitive exponents                        R   N=          74
  1.64200000E+05  2.45900000E+04  5.59200000E+03  1.58200000E+03  5.16100000E+02
  1.87200000E+02  7.39300000E+01  3.12200000E+01  1.38100000E+01  1.58200000E+03
  5.16100000E+02  1.87200000E+02  7.39300000E+01  3.12200000E+01  1.38100000E+01
  6.25600000E+00  2.77600000E+00  1.13800000E+00  4.60000000E-01  1.82900000E-01
  1.95500000E+02  4.61600000E+01  1.45800000E+01  5.29600000E+00  2.09400000E+00
  8.47100000E-01  3.36800000E-01  1.28500000E-01  5.87900000E+00  2.30700000E+00
  9.05000000E-01  3.55000000E-01  4.01600000E+00  1.55400000E+00  6.01000000E-01
  3.35000000E+00  1.18900000E+00  2.31900000E+00  4.02000000E+02  6.02400000E+01
  1.37300000E+01  3.90500000E+00  1.28300000E+00  4.65500000E-01  1.81100000E-01
  7.27900000E-02  4.51600000E+00  1.71200000E+00  6.49000000E-01  2.46000000E-01
  2.95000000E+00  1.20600000E+00  4.93000000E-01  2.50600000E+00  8.75000000E-01
  2.35800000E+00  4.02000000E+02  6.02400000E+01  1.37300000E+01  3.90500000E+00
  1.28300000E+00  4.65500000E-01  1.81100000E-01  7.27900000E-02  4.51600000E+00
  1.71200000E+00  6.49000000E-01  2.46000000E-01  2.95000000E+00  1.20600000E+00
  4.93000000E-01  2.50600000E+00  8.75000000E-01  2.35800000E+00
Contraction coefficients                   R   N=          74
  4.49112566E-05  3.61624169E-04  1.88339428E-03  7.88317089E-03  2.79922597E-02
  8.37142246E-02  2.06350654E-01  3.76897488E-01  4.14901402E-01 -4.28453395E-05
 -2.71439680E-04 -2.95026082E-03 -1.63349789E-02 -8.52526950E-02 -2.93974897E-01
 -6.54266624E-01  1.00000000E+00  1.00000000E+00  1.00000000E+00  1.00000000E+00
  6.27445151E-03  5.04963483E-02  2.38934941E-01  7.88961016E-01  1.00000000E+00
  1.00000000E+00  1.00000000E+00  1.00000000E+00  1.00000000E+00  1.00000000E+00
  1.00000000E+00  1.00000000E+00  1.00000000E+00  1.00000000E+00  1.00000000E+00
  1.00000000E+00  1.00000000E+00  1.00000000E+00  5.08810428E-03  3.94829597E-02
  2.04271885E-01  8.18437075E-01  1.00000000E+00  1.00000000E+00  1.00000000E+00
  1.00000000E+00  1.00000000E+00  1.00000000E+00  1.00000000E+00  1.00000000E+00
  1.00000000E+00  1.00000000E+00  1.00000000E+00  1.00000000E+00  1.00000000E+00
  1.00000000E+00  5.08810428E-03  3.94829597E-02  2.04271885E-01  8.18437075E-01
  1.00000000E+00  1.00000000E+00  1.00000000E+00  1.00000000E+00  1.00000000E+00
  1.00000000E+00  1.00000000E+00  1.00000000E+00  1.00000000E+00  1.00000000E+00
  1.00000000E+00  1.00000000E+00  1.00000000E+00  1.00000000E+00
Coordinates of each shell                  R   N=         153
 -4.44734101E+00  3.39697999E+00  0.00000000E+00 -4.44734101E+00  3.39697999E+00
  0.00000000E+00 -4.44734101E+00  3.39697999E+00  0.00000000E+00 -4.44734101E+00
  3.39697999E+00  0.00000000E+00 -4.44734101E+00  3.39697999E+00  0.00000000E+00
 -4.44734101E+00  3.39697999E+00  0.00000000E+00 -4.44734101E+00  3.39697999E+00
  0.00000000E+00 -4.44734101E+00  3.39697999E+00  0.00000000E+00 -4.44734101E+00
  3.39697999E+00  0.00000000E+00 -4.44734101E+00  3.39697999E+00  0.00000000E+00
 -4.44734101E+00  3.39697999E+00  0.00000000E+00 -4.44734101E+00  3.39697999E+00
  0.00000000E+00 -4.44734101E+00  3.39697999E+00  0.00000000E+00 -4.44734101E+00
  3.39697999E+00  0.00000000E+00 -4.44734101E+00  3.39697999E+00  0.00000000E+00
 -4.44734101E+00  3.39697999E+00  0.00000000E+00 -4.44734101E+00  3.39697999E+00
  0.00000000E+00 -4.44734101E+00  3.39697999E+00  0.00000000E+00 -4.44734101E+00
  3.39697999E+00  0.00000000E+00 -4.44734101E+00  3.39697999E+00  0.00000000E+00
 -4.44734101E+00  3.39697999E+00  0.00000000E+00 -2.58401495E+00  3.55136194E+00
  0.00000000E+00 -2.58401495E+00  3.55136194E+00  0.00000000E+00 -2.58401495E+00
  3.55136194E+00  0.00000000E+00 -2.58401495E+00  3.55136194E+00  0.00000000E+00
 -2.58401495E+00  3.55136194E+00  0.00000000E+00 -2.58401495E+00  3.55136194E+00
  0.00000000E+00 -2.58401495E+00  3.55136194E+00  0.00000000E+00 -2.58401495E+00
  3.55136194E+00  0.00000000E+00 -2.58401495E+00  3.55136194E+00  0.00000000E+00
 -2.58401495E+00  3.55136194E+00  0.00000000E+00 -2.58401495E+00  3.55136194E+00
  0.00000000E+00 -2.58401495E+00  3.55136194E+00  0.00000000E+00 -2.58401495E+00
  3.55136194E+00  0.00000000E+00 -2.58401495E+00  3.55136194E+00  0.00000000E+00
 -2.58401495E+00  3.55136194E+00  0.00000000E+00 -4.92380519E+00  5.20496220E+00
  0.00000000E+00 -4.92380519E+00  5.20496220E+00  0.00000000E+00 -4.92380519E+00
  5.20496220E+00  0.00000000E+00 -4.92380519E+00  5.20496220E+00  0.00000000E+00
 -4.92380519E+00  5.20496220E+00  0.00000000E+00 -4.92380519E+00  5.20496220E+00
  0.00000000E+00 -4.92380519E+00  5.20496220E+00  0.00000000E+00 -4.92380519E+00
  5.20496220E+00  0.00000000E+00 -4.92380519E+00  5.20496220E+00  0.00000000E+00
 -4.92380519E+00  5.20496220E+00  0.00000000E+00 -4.92380519E+00  5.20496220E+00
  0.00000000E+00 -4.92380519E+00  5.20496220E+00  0.00000000E+00 -4.92380519E+00
  5.20496220E+00  0.00000000E+00 -4.92380519E+00  5.20496220E+00  0.00000000E+00
 -4.92380519E+00  5.20496220E+00  0.00000000E+00
Num ILSW                                   I              100
ILSW                                       I   N=         100
           0           0           0           0           2           0
           0           0           0           0           0          -1
           5           0           0           0           2           0
           0           0           0           0           1           0
           1           1           0           0           0           0
           0           0      100000           0          -1           0
           0           0           0           0           0           0
           0           0           0           1           0           0
           0 -2000000000           1           0           0           0
           0           0           4          52           0           0
           0           0           0           0           0           0
           0           0           0           3           0           1
           0           0           0           0           0           0
           0           0           0           0           0           0
           0           0           0           0           0           0
           0           0           0           0           0           0
           0           0           0           0
Num RLSW                                   I               52
RLSW                                       R   N=          52
  1.00000000E+00  1.00000000E+00  1.00000000E+00  1.00000000E+00  1.00000000E+00
  0.00000000E+00  0.00000000E+00  1.00000000E+00  0.00000000E+00  0.00000000E+00
  0.00000000E+00  0.00000000E+00  1.00000000E+00  0.00000000E+00  0.00000000E+00
  0.00000000E+00  0.00000000E+00  1.00000000E+00  0.00000000E+00  0.00000000E+00
  0.00000000E+00  0.00000000E+00  1.00000000E+00  0.00000000E+00  0.00000000E+00
  0.00000000E+00  0.00000000E+00  1.00000000E+00  0.00000000E+00  0.00000000E+00
  0.00000000E+00  0.00000000E+00  1.00000000E+00  0.00000000E+00  0.00000000E+00
  0.00000000E+00  0.00000000E+00  0.00000000E+00  1.00000000E+00  1.00000000E+00
  0.00000000E+00  1.00000000E+00  0.00000000E+00  0.00000000E+00  0.00000000E+00
  0.00000000E+00  0.00000000E+00  0.00000000E+00  0.00000000E+00  0.00000000E+00
  0.00000000E+00  0.00000000E+00
MxBond                                     I                2
NBond                                      I   N=           3
           2           1           1
IBond                                      I   N=           6
           2           3           1           0           1           0
RBond                                      R   N=           6
  1.00000000E+00  1.00000000E+00  1.00000000E+00  0.00000000E+00  1.00000000E+00
  0.00000000E+00
Virial Ratio                               R      2.002271383422203E+00
SCF Energy                                 R     -7.606234845007903E+01
Total Energy                               R     -7.606234845007903E+01
RMS Force                                  R      3.269638259019157E-02
RMS Density                                R      1.667553296843943E-09
Job Status                                 I                1
Nuclear derivative order                   I                1
External E-field                           R   N=          35
  0.00000000E+00  0.00000000E+00  0.00000000E+00  0.00000000E+00  0.00000000E+00
  0.00000000E+00  0.00000000E+00  0.00000000E+00  0.00000000E+00  0.00000000E+00
  0.00000000E+00  0.00000000E+00  0.00000000E+00  0.00000000E+00  0.00000000E+00
  0.00000000E+00  0.00000000E+00  0.00000000E+00  0.00000000E+00  0.00000000E+00
  0.00000000E+00  0.00000000E+00  0.00000000E+00  0.00000000E+00  0.00000000E+00
  0.00000000E+00  0.00000000E+00  0.00000000E+00  0.00000000E+00  0.00000000E+00
  0.00000000E+00  0.00000000E+00  0.00000000E+00  0.00000000E+00  0.00000000E+00
IOpCl                                      I                0
IROHF                                      I                0
Alpha Orbital Energies                     R   N=         201
 -2.05704642E+01 -1.33896664E+00 -6.91314702E-01 -5.86778343E-01 -5.08855254E-01
  8.74078017E-02  1.34063581E-01  3.11406997E-01  3.41823239E-01  3.72488683E-01
  3.95901806E-01  4.76231986E-01  4.83704570E-01  5.51268525E-01  5.81206754E-01
  6.66845731E-01  7.48232755E-01  8.11531680E-01  8.49565340E-01  9.53839743E-01
  1.00767552E+00  1.17457643E+00  1.19215111E+00  1.20882732E+00  1.28157394E+00
  1.38885574E+00  1.47199436E+00  1.52248873E+00  1.59551207E+00  1.70589193E+00
  1.72782353E+00  1.73161710E+00  1.84323547E+00  1.87997905E+00  1.89154544E+00
  1.95884761E+00  1.98426826E+00  2.00602024E+00  2.08386826E+00  2.18009183E+00
  2.20295811E+00  2.33047801E+00  2.49965171E+00  2.59567206E+00  2.67279691E+00
  2.67516871E+00  2.88206166E+00  2.90478208E+00  2.95048358E+00  2.99841612E+00
  3.12520849E+00  3.21407016E+00  3.23738040E+00  3.45661559E+00  3.52873711E+00
  3.63241413E+00  3.68669694E+00  3.69831293E+00  3.82022448E+00  3.82156887E+00
  3.98996229E+00  4.04295032E+00  4.15419926E+00  4.21969951E+00  4.34143586E+00
  4.48268476E+00  4.66831457E+00  4.67022856E+00  4.67551090E+00  4.74095729E+00
  4.77625740E+00  4.79840640E+00  4.84112969E+00  4.91528012E+00  4.97826737E+00
  5.04848538E+00  5.09461328E+00  5.19481212E+00  5.29969177E+00  5.49617669E+00
  5.55638318E+00  5.68550499E+00  5.76435892E+00  5.85586200E+00  5.97097503E+00
  6.17459294E+00  6.36772356E+00  6.52421163E+00  6.60478086E+00  6.64847117E+00
  6.90282759E+00  7.04632640E+00  7.08360761E+00  7.12556481E+00  7.18001392E+00
  7.27093925E+00  7.35637243E+00  7.46996818E+00  7.54909215E+00  7.62517203E+00
  7.63350033E+00  7.85195239E+00  7.94836449E+00  8.16489888E+00  8.17297052E+00
  8.22517154E+00  8.58704264E+00  8.89539716E+00  9.30879784E+00  9.43876914E+00
  9.49533258E+00  1.00265602E+01  1.01293397E+01  1.02118135E+01  1.21166375E+01
  1.21874949E+01  1.22271363E+01  1.22585969E+01  1.23742040E+01  1.24489433E+01
  1.25163843E+01  1.25244222E+01  1.25272914E+01  1.25673710E+01  1.26290114E+01
  1.26362396E+01  1.27645504E+01  1.29105953E+01  1.29267201E+01  1.29851659E+01
  1.30317361E+01  1.30379370E+01  1.30812706E+01  1.32286743E+01  1.33722657E+01
  1.35739914E+01  1.36466967E+01  1.36596739E+01  1.36955559E+01  1.37385729E+01
  1.37744506E+01  1.37985454E+01  1.38360724E+01  1.38843636E+01  1.40065290E+01
  1.40212900E+01  1.41234614E+01  1.42938264E+01  1.42946449E+01  1.45136336E+01
  1.45878259E+01  1.50296091E+01  1.50844206E+01  1.56612966E+01  1.59189799E+01
  1.60379174E+01  1.61133499E+01  1.62949389E+01  1.63175765E+01  1.64149203E+01
  1.65791112E+01  1.65793182E+01  1.66281307E+01  1.66298570E+01  1.67318291E+01
  1.69347302E+01  1.74597285E+01  1.75560204E+01  1.77332915E+01  1.77588824E+01
  1.80702639E+01  1.81195292E+01  1.82721175E+01  1.84473410E+01  1.86400905E+01
  1.87013846E+01  1.89990107E+01  1.90381520E+01  1.90470642E+01  1.91984648E+01
  1.93553363E+01  1.94620937E+01  1.97666262E+01  1.99058313E+01  1.99262740E+01
  2.01284640E+01  2.01694894E+01  2.11852271E+01  2.11950050E+01  2.24723932E+01
  2.26068537E+01  2.29488555E+01  2.31686279E+01  2.33290151E+01  2.34488766E+01
  2.35201114E+01  2.47019214E+01  2.49143006E+01  2.56109192E+01  2.61021354E+01
  6.54489819E+01
Alpha MO coefficients                      R   N=       40401
  5.71286360E-01 -4.26185910E-01  6.40373524E-02  2.70326794E-05  4.20373860E-03
  1.90024704E-03  9.15891980E-04  1.29595717E-03 -3.09457293E-16 -2.85227038E-04
 -4.03586922E-04  5.54785162E-16  4.95563390E-04  7.01205971E-04 -3.30132857E-16
  9.02752119E-04  1.27736470E-03  2.57545295E-15  9.42253038E-05  1.33325720E-04
 -6.84658949E-16 -1.58333931E-04 -1.34858886E-16  1.83624467E-16  1.53479014E-05
 -4.33411372E-05  2.71296055E-04  9.66739392E-16 -9.59356273E-16 -2.27769344E-05
  6.43200788E-05 -3.55648858E-04 -5.08769080E-15  4.60307959E-15 -1.23580464E-05
  3.48980485E-05 -4.29298034E-04 -6.14900216E-15  5.17179464E-15  1.69462732E-05
 -4.78547994E-05  6.18220446E-17  4.59151982E-07  6.49684966E-07  3.25130042E-16
  2.29437751E-16  5.68530317E-06 -1.60342137E-06 -2.13904582E-16 -3.77138573E-05
 -5.33638734E-05 -1.44574077E-15 -7.22284909E-16  8.34589105E-05 -2.35378478E-05
 -5.53736369E-16 -1.07710678E-04 -1.52407083E-04 -5.48059858E-15 -2.07932672E-15
  2.48475208E-04 -7.00772580E-05  2.22802033E-06 -8.20077797E-17  6.07826541E-17
 -3.12484471E-07  8.82428968E-07 -2.05968946E-17  4.47634126E-17  4.14765040E-06
  3.35870101E-06  4.56063182E-05  1.22467738E-15 -1.13217957E-15  1.80414671E-06
 -5.09475318E-06 -1.02135580E-17 -1.01883873E-15  8.14631845E-05  6.59675848E-05
  4.67751521E-17  5.67661407E-06  8.03222309E-06  3.81949403E-16  1.47630329E-16
 -9.26910188E-06  2.61415717E-06 -4.74296775E-17  1.02123839E-16 -1.26259249E-06
  1.92634420E-05  5.26750901E-05 -9.52642364E-06 -1.58621240E-03 -6.92779996E-04
  5.72960964E-06 -1.65274891E-05  8.52420268E-07 -4.68171175E-18  5.42034543E-05
  8.12740806E-06 -4.90460744E-16  7.06619814E-04 -4.09994344E-05  6.88779743E-15
  4.17308793E-04  1.61135368E-05  3.65003041E-15  4.26677194E-06  2.85370106E-16
  6.62994044E-18 -7.65999904E-06 -7.75445195E-06  3.40260555E-05 -2.29088352E-15
 -1.04571691E-16 -6.36385891E-05  4.59971028E-05  6.05808716E-05 -4.87363204E-15
 -6.79649682E-16 -1.03100744E-04  2.32813932E-05 -1.90295166E-16 -4.80735780E-06
  3.41838925E-06  1.94621330E-16  1.81719268E-17  7.25277924E-06 -8.52827284E-06
 -1.25276272E-15  1.93511237E-05  8.78632377E-06  1.78781761E-15  2.95681351E-16
 -1.07353471E-05 -3.57651216E-05  5.53984816E-06  3.08109941E-16  1.51811068E-17
 -6.50973206E-06 -4.12672702E-06 -2.76777315E-16 -4.47693651E-17  5.79478314E-06
  9.98741160E-06  5.26750902E-05 -9.52642560E-06 -1.58621240E-03 -6.92779995E-04
  5.72960973E-06  6.32051591E-06 -1.52949533E-05 -3.10650911E-17 -1.04322528E-05
  5.38074101E-05  8.84621096E-16 -2.74522305E-04  6.52403260E-04 -9.55086821E-15
 -1.24111247E-04  3.98751391E-04 -3.77646917E-15  4.26677206E-06  2.17342421E-16
 -2.96044612E-16  1.08329722E-05 -1.20574741E-06  3.40260549E-05 -1.00819251E-15
  2.75009256E-15  2.05095573E-05  7.57955240E-05  6.05808708E-05 -1.11754028E-15
  6.09831715E-15  6.54728705E-05  8.29764399E-05  2.50901762E-16  4.82704453E-06
 -3.39053308E-06  2.41374557E-16  1.59698487E-16  1.06400212E-05  3.48198119E-06
  1.58873821E-15  1.82281550E-06  2.11741077E-05  1.93428209E-15  9.64110592E-16
  9.53383673E-06  3.61039829E-05  5.53984821E-06  9.53099808E-17 -4.13483592E-16
  7.65604552E-06  8.89637868E-07  2.40045053E-16 -2.90314061E-16  1.09739660E-05
  3.59165350E-06 -1.16784597E-01  2.01655561E-01  6.95430135E-03  3.27340437E-01
  4.57478009E-01  1.67761831E-01  9.16309274E-03  1.29654763E-02 -5.01413724E-16
  1.55065737E-02  2.19412942E-02  1.28723452E-15  2.83359393E-02  4.00944267E-02
 -2.11465868E-15  1.96088931E-02  2.77459419E-02  1.42400050E-14  2.13521380E-03
  3.02125763E-03  4.87546713E-16 -1.58991755E-04 -3.60824674E-16  1.13259229E-16
 -1.75813708E-05  4.96482563E-05 -1.88061030E-03  5.12908249E-16 -1.10831885E-16
  1.00248602E-04 -2.83093342E-04 -8.64809912E-03 -7.58850995E-16  1.12771461E-15
  3.83636732E-04 -1.08335679E-03 -3.90420649E-03  1.81009150E-16  8.47251102E-15
  1.93606472E-04 -5.46727847E-04 -1.45772152E-16 -3.03237494E-05 -4.29071132E-05
  2.31018568E-17 -1.85302401E-17  9.28374696E-05 -2.61828752E-05  3.92019611E-16
 -9.25476816E-04 -1.30951940E-03  2.86515272E-17 -6.95725082E-17  2.20307905E-03
 -6.21332569E-04 -2.69514128E-15 -1.24504710E-03 -1.76170090E-03 -2.30067000E-15
 -4.25658736E-16  3.15833259E-03 -8.90741938E-04  9.01856016E-05 -4.31521897E-17
  1.33397033E-16 -7.77906871E-06  2.19674137E-05  1.67185493E-17  6.22699110E-17
  1.24864874E-04  1.01113580E-04  6.38085366E-04  1.88147619E-16 -5.37504492E-16
 -1.50333679E-05  4.24529237E-05 -3.66000648E-17 -2.72874992E-16  8.93864564E-04
  7.23837239E-04 -2.09045256E-17  6.14100922E-05  8.68932703E-05  6.93385565E-17
 -4.50171759E-17 -1.18936163E-04  3.35434680E-05 -4.20728834E-17 -3.07267138E-17
 -7.47171726E-06  1.13996393E-04  2.06444793E-02  4.73405805E-02  6.81406265E-02
  1.58913033E-02  1.70855614E-03 -1.60423898E-03 -3.40556774E-05 -1.83573481E-16
 -5.66364138E-03 -1.25008681E-04  7.72165134E-16 -1.13190492E-02  2.58472014E-04
 -1.57265347E-15 -2.38755266E-03  9.52348656E-04 -2.01829962E-15 -3.22145351E-04
  3.72707508E-17  2.08040842E-17  5.58072518E-04  1.78897159E-05 -8.66991422E-04
 -5.64246285E-16 -1.04227022E-16  1.27200711E-03  1.66018324E-04 -6.94918872E-04
  1.90385356E-15 -6.22298121E-16  1.07545816E-03 -2.28245844E-04 -3.31685675E-17
  8.56691686E-05  3.98196269E-06  1.14239767E-16 -4.19769772E-17 -9.03665861E-05
 -1.17821889E-05  7.07608760E-17  3.39797310E-04  4.27792335E-05 -1.14836676E-16
  3.61899763E-16 -3.01594601E-04 -1.50524425E-04  2.13330566E-05 -6.47627148E-18
  9.77931104E-18 -2.52073432E-05 -2.29997623E-06 -1.13788651E-17 -3.00955946E-17
  1.83671961E-05  1.05152991E-05  2.06444793E-02  4.73405806E-02  6.81406265E-02
  1.58913033E-02  1.70855613E-03  5.03403675E-04 -1.52359025E-03 -2.38499457E-16
  1.77272395E-03 -5.38051213E-03  1.10398802E-15  4.02202267E-03 -1.05835257E-02
 -6.68323801E-15  1.69470480E-03 -1.93270569E-03 -7.27458806E-15 -3.22145351E-04
  7.44134547E-17  4.58835712E-17 -4.44962171E-04 -3.37303492E-04 -8.66991421E-04
 -2.78536985E-16 -5.24554121E-17 -1.09301391E-03 -6.71479533E-04 -6.94918872E-04
 -2.03055056E-15  6.71755887E-15 -6.92148212E-04 -8.54188080E-04 -5.48975473E-17
 -2.48433926E-05  8.20845197E-05 -1.15841911E-16 -6.92228296E-17 -7.08940035E-05
  5.72623803E-05  7.59128354E-16 -7.31011906E-05  3.34587045E-04  7.78050165E-16
  7.74997052E-16 -1.78502870E-04  2.85925919E-04  2.13330569E-05  1.06619394E-17
 -7.55856328E-18  2.10372074E-05  1.40760779E-05  1.84929532E-17  4.50271156E-17
  1.41042699E-05  1.57795754E-05 -5.89001272E-11  1.04940496E-10  6.58142848E-12
  1.73445123E-10  3.07442719E-10  3.02501363E-10  8.76463561E-02 -6.19423208E-02
 -2.86783146E-16  1.49623170E-01 -1.05743202E-01 -1.47612364E-15  2.26704323E-01
 -1.60218776E-01  1.22903005E-15  1.85841317E-01 -1.31339659E-01  2.01400455E-17
  4.79999027E-02 -3.39229776E-02 -1.33993100E-17  1.09430966E-12 -1.62015147E-18
 -1.65692548E-16  1.60597224E-03  5.68704588E-04  6.55036845E-12  1.36632117E-16
 -1.53604124E-16  7.26117609E-03  2.57131728E-03  1.16149593E-11 -7.50885622E-16
  2.08336043E-15  2.51168260E-02  8.89433443E-03  6.93608715E-12  2.25670745E-16
  4.23969866E-16  1.84458015E-02  6.53200079E-03  1.37418264E-16 -2.71981683E-04
  1.92217651E-04  1.41659016E-16  1.35682013E-16  6.34854155E-06  2.25102317E-05
 -5.37528395E-16 -2.56031848E-03  1.80945421E-03 -6.09671366E-16 -4.00747748E-16
  2.53171477E-04  8.97678333E-04 -6.11283357E-16 -3.38896231E-03  2.39508178E-03
 -6.33366944E-16 -4.75057882E-16  5.48428654E-04  1.94458128E-03 -2.66584490E-13
  8.51573092E-17 -4.85980389E-18 -1.32537958E-04 -4.69341520E-05  5.69014461E-17
 -6.75929199E-17  7.80314228E-05 -9.63607845E-05 -1.87550820E-13  9.14136493E-17
 -5.49596279E-16 -1.12104553E-03 -3.96983036E-04  3.91161420E-16 -3.11717917E-16
  5.47972950E-04 -6.76690251E-04  1.49960051E-16  1.18198590E-04 -8.35345049E-05
  1.72610157E-16  1.47771510E-16 -1.28733687E-05 -4.56455214E-05  1.25730512E-16
  1.83595499E-16  2.65348988E-04  1.73918886E-05  3.26459550E-02  7.94038930E-02
  1.40981687E-01  1.23835140E-01  1.57107606E-02 -1.43403518E-03 -5.72324862E-04
  1.49057845E-16 -5.13992875E-03 -2.37733696E-03 -3.31764636E-16 -1.17420288E-02
 -7.47783430E-03  5.18568270E-16 -1.12695537E-02 -5.20460341E-03 -9.09385113E-16
 -4.13439048E-04  9.08672399E-17  1.17114256E-20  6.83443775E-04  3.85623537E-04
 -4.64545298E-04 -9.61267700E-17 -1.13186039E-17  7.34700172E-04  1.29377274E-03
 -1.62618654E-03  2.05270059E-16  1.77831605E-16  1.81958724E-03  2.03654737E-03
 -4.34691946E-17  2.29107514E-04  7.06232472E-05  1.76087148E-17 -2.66760155E-17
 -2.99363981E-04 -2.32163570E-04  4.05909599E-17  3.55702395E-04  6.80024183E-05
 -2.74390462E-17  2.40751371E-17 -1.64185248E-04 -3.47278798E-04  7.92867654E-05
  7.30372439E-17  6.65192620E-18 -1.05884517E-04 -4.68029266E-05 -2.04096987E-17
 -5.14271595E-18  1.17748777E-04  9.81285352E-05 -3.26459551E-02 -7.94038931E-02
 -1.40981687E-01 -1.23835140E-01 -1.57107606E-02  6.08063861E-05  1.54282703E-03
  3.25377773E-16  5.25233010E-04  5.63868149E-03 -6.50669645E-16  3.12934716E-03
  1.35646759E-02 -1.85235905E-15  1.14422085E-03  1.23604812E-02 -5.78793287E-16
  4.13439050E-04  1.78845008E-17 -2.28712065E-16  7.73816328E-04  1.30419323E-04
  4.64545299E-04 -3.48242594E-16  1.78365584E-15  1.38516683E-03 -5.43088469E-04
  1.62618654E-03 -2.62568600E-16  8.30130976E-16  2.69572565E-03 -4.37591234E-04
  2.89541212E-16  9.90525569E-06 -2.39540774E-04  3.85906874E-16  1.62316042E-16
  1.33944618E-04 -3.54369237E-04  5.68341650E-16  5.46339973E-05 -3.57999510E-04
  5.86883141E-16  3.21047642E-16 -4.14617408E-05 -3.81890406E-04 -7.92867655E-05
  6.42026368E-17 -3.18515007E-16 -1.11741761E-04 -3.02625793E-05  1.82831968E-16
 -2.70471301E-16 -1.20465540E-04 -9.47736121E-05  3.87201493E-02 -6.98004350E-02
 -5.56368093E-03 -1.19233316E-01 -1.92054167E-01 -1.96282044E-01  6.75211488E-02
  9.55402151E-02 -1.37397751E-16  1.16047081E-01  1.64202820E-01  1.53577533E-16
  1.71826060E-01  2.43128250E-01 -8.36966450E-16  1.41192401E-01  1.99782626E-01
  1.15739752E-14  6.82583972E-02  9.65833975E-02  4.75912804E-16 -7.27841494E-04
  1.02761082E-16 -1.97699483E-17 -1.27481715E-04  3.59997267E-04 -4.21343160E-03
 -5.78022499E-16  2.27098725E-16 -8.25222281E-04  2.33035587E-03 -8.79608095E-03
  3.07464836E-15 -1.19196533E-15 -1.79733276E-03  5.07551128E-03 -8.01102038E-03
  8.09138896E-15  1.35990503E-15 -8.22297935E-04  2.32209783E-03 -2.17232881E-16
 -1.76230437E-04 -2.49360300E-04 -6.03499340E-17 -2.84094633E-16  2.36298999E-04
 -6.66432120E-05  3.80810377E-16 -1.18837555E-03 -1.68151250E-03  1.90509850E-16
  4.34103325E-16  1.22987556E-03 -3.46860788E-04 -2.43576734E-15 -6.98955608E-04
 -9.88999299E-04  3.76992251E-15  8.26044635E-16  1.31339278E-03 -3.70415078E-04
  7.39912588E-05  1.93230487E-16 -5.01282767E-17  1.04224070E-05 -2.94319696E-05
 -1.08833406E-16 -9.93059579E-17  1.28707464E-04  1.04225247E-04  3.57066586E-04
 -8.42141148E-16  2.19499596E-16  1.51961861E-05 -4.29127098E-05  4.13633603E-16
  4.30349530E-16  2.62288091E-04  2.12396704E-04 -5.58347393E-17  3.67960843E-05
  5.20652546E-05 -1.22591741E-16 -7.99970953E-17 -3.40207935E-05  9.59485623E-06
 -2.71029258E-17 -4.11695399E-17 -4.94061043E-06  7.53791640E-05  2.08520713E-02
  5.20778442E-02  1.08117715E-01  8.27125985E-02  3.61097832E-03 -7.06488565E-04
  6.89615486E-04 -1.93656905E-16 -3.55712814E-03  2.61198733E-03  1.00788655E-15
 -1.12282487E-02  1.22684945E-02 -8.11649256E-15 -8.89212379E-04  1.93044711E-02
 -6.98559387E-15 -3.01357797E-04 -1.57080603E-16 -2.69930815E-17  4.52872754E-04
 -3.21052548E-04 -7.01579714E-04  1.20109671E-15  4.06347265E-17  1.41692387E-03
 -1.73942887E-03 -4.15772469E-04  7.08247434E-15  4.60002292E-16 -5.88808554E-04