C2H4_cc-pvtz                                                            
Stability RHF                                                         CC-pVTZ             
Number of atoms                            I                6
Info1-9                                    I   N=           9
          13           9           0           0           0         110
           7           1           2
Full Title                                 C   N=           1
C2H4_cc-pvtz
Route                                      C   N=          14
#p hf/cc-pvtz stable=opt guess=read geom=check scf=(maxcycle
=900,verytightlineq,xqc) integral=grid=ultrafine density=cur
rent pop=(cm5,hlygat,mbs,npa) output=wfx        
Charge                                     I                0
Multiplicity                               I                1
Number of electrons                        I               16
Number of alpha electrons                  I                8
Number of beta electrons                   I                8
Number of basis functions                  I              116
Number of independent functions            I              116
Number of point charges in /Mol/           I                0
Number of translation vectors              I                0
Atomic numbers                             I   N=           6
           6           1           1           6           1           1
Nuclear charges                            R   N=           6
  6.00000000E+00  1.00000000E+00  1.00000000E+00  6.00000000E+00  1.00000000E+00
  1.00000000E+00
Current cartesian coordinates              R   N=          18
 -1.40574475E-15 -1.26000025E-18  1.24147227E+00 -6.76304670E-15  1.72815845E+00
  2.30704491E+00  9.13106381E-16 -1.72815845E+00  2.30704491E+00  2.03974084E-15
  5.67711515E-17 -1.24147227E+00  7.03336791E-15 -1.72815845E+00 -2.30704491E+00
 -3.60253654E-16  1.72815845E+00 -2.30704491E+00
Number of symbols in /Mol/                 I                0
Int Atom Types                             I   N=           6
           0           0           0           0           0           0
Force Field                                I                0
Atom Types                                 C   N=           6
                                                            
            
MM charges                                 R   N=           6
  0.00000000E+00  0.00000000E+00  0.00000000E+00  0.00000000E+00  0.00000000E+00
  0.00000000E+00
Integer atomic weights                     I   N=           6
          12           1           1          12           1           1
Real atomic weights                        R   N=           6
  1.20000000E+01  1.00782504E+00  1.00782504E+00  1.20000000E+01  1.00782504E+00
  1.00782504E+00
Atom fragment info                         I   N=           6
           0           0           0           0           0           0
Atom residue num                           I   N=           6
           0           0           0           0           0           0
Nuclear spins                              I   N=           6
           0           1           1           0           1           1
Nuclear ZEff                               R   N=           6
 -3.60000000E+00 -1.00000000E+00 -1.00000000E+00 -3.60000000E+00 -1.00000000E+00
 -1.00000000E+00
Nuclear ZNuc                               R   N=           6
  6.00000000E+00  1.00000000E+00  1.00000000E+00  6.00000000E+00  1.00000000E+00
  1.00000000E+00
Nuclear QMom                               R   N=           6
  0.00000000E+00  0.00000000E+00  0.00000000E+00  0.00000000E+00  0.00000000E+00
  0.00000000E+00
Nuclear GFac                               R   N=           6
  0.00000000E+00  2.79284600E+00  2.79284600E+00  0.00000000E+00  2.79284600E+00
  2.79284600E+00
MicOpt                                     I   N=           6
          -1          -1          -1          -1          -1          -1
Number of residues                         I                0
Number of secondary structures             I                0
Redundant internal dimensions              I   N=           4
          15           5           6           4
Redundant internal coordinate indices      I   N=          60
           1           2           0           0           1           3
           0           0           1           4           0           0
           4           5           0           0           4           6
           0           0           2           1           3           0
           2           1           4           0           3           1
           4           0           1           4           5           0
           1           4           6           0           5           4
           6           0           2           1           4           5
           2           1           4           6           3           1
           4           5           3           1           4           6
Redundant internal coordinates             R   N=          15
  2.03026518E+00  2.03026518E+00  2.48294453E+00  2.03026518E+00  2.03026518E+00
  2.03652882E+00  2.12332824E+00  2.12332824E+00  2.12332824E+00  2.12332824E+00
  2.03652882E+00  3.14159265E+00  0.00000000E+00  0.00000000E+00  3.14159265E+00
ZRed-IntVec                                I   N=          15
           0           0           0           0           0           0
           0           0           0           0           0           0
           0           0           0
ZRed-FPVec                                 R   N=          15
  0.00000000E+00  0.00000000E+00  0.00000000E+00  0.00000000E+00  0.00000000E+00
  0.00000000E+00  0.00000000E+00  0.00000000E+00  0.00000000E+00  0.00000000E+00
  0.00000000E+00  0.00000000E+00  0.00000000E+00  0.00000000E+00  0.00000000E+00
ZRed-Constraint1                           R   N=          15
  2.03026518E+00  2.03026518E+00  2.48294453E+00  2.03026518E+00  2.03026518E+00
  2.03652882E+00  2.12332824E+00  2.12332824E+00  2.12332824E+00  2.12332824E+00
  2.03652882E+00  3.14159265E+00  0.00000000E+00  0.00000000E+00  3.14159265E+00
ZRed-Constraint2                           R   N=          15
  2.04575199E+00  2.04575199E+00  2.50358664E+00  2.04575199E+00  2.04575199E+00
  2.03416393E+00  2.12451069E+00  2.12451069E+00  2.12451069E+00  2.12451069E+00
  2.03416393E+00  3.14159265E+00  0.00000000E+00  0.00000000E+00  3.14159265E+00
SymInf integers                            I   N=          26
           4           8           1           1           1          -1
          -1           1          -1           1          -1           1
          -1          -1          -1           1           1           1
          -1           1           1           1          -1          -1
          -1          -1
RotTr to input orientation                 R   N=          12
  1.00000000E+00  2.28213780E-15  1.32642878E-15 -2.28213780E-15  1.00000000E+00
  2.33719082E-17 -1.32642878E-15 -2.33719082E-17  1.00000000E+00  2.40979791E-16
  2.77555756E-17  5.55111512E-17
Number of contracted shells                I               44
Number of primitive shells                 I               78
Pure/Cartesian d shells                    I                0
Pure/Cartesian f shells                    I                0
Highest angular momentum                   I                3
Largest degree of contraction              I                7
Shell types                                I   N=          44
           0           0           0           0           1           1
           1          -2          -2          -3           0           0
           0           1           1          -2           0           0
           0           1           1          -2           0           0
           0           0           1           1           1          -2
          -2          -3           0           0           0           1
           1          -2           0           0           0           1
           1          -2
Number of primitives per shell             I   N=          44
           7           6           1           1           3           1
           1           1           1           1           3           1
           1           1           1           1           3           1
           1           1           1           1           7           6
           1           1           3           1           1           1
           1           1           3           1           1           1
           1           1           3           1           1           1
           1           1
Shell to atom map                          I   N=          44
           1           1           1           1           1           1
           1           1           1           1           2           2
           2           2           2           2           3           3
           3           3           3           3           4           4
           4           4           4           4           4           4
           4           4           5           5           5           5
           5           5           6           6           6           6
           6           6
Primitive exponents                        R   N=          78
  8.23600000E+03  1.23500000E+03  2.80800000E+02  7.92700000E+01  2.55900000E+01
  8.99700000E+00  3.31900000E+00  2.80800000E+02  7.92700000E+01  2.55900000E+01
  8.99700000E+00  3.31900000E+00  3.64300000E-01  9.05900000E-01  1.28500000E-01
  1.87100000E+01  4.13300000E+00  1.20000000E+00  3.82700000E-01  1.20900000E-01
  1.09700000E+00  3.18000000E-01  7.61000000E-01  3.38700000E+01  5.09500000E+00
  1.15900000E+00  3.25800000E-01  1.02700000E-01  1.40700000E+00  3.88000000E-01
  1.05700000E+00  3.38700000E+01  5.09500000E+00  1.15900000E+00  3.25800000E-01
  1.02700000E-01  1.40700000E+00  3.88000000E-01  1.05700000E+00  8.23600000E+03
  1.23500000E+03  2.80800000E+02  7.92700000E+01  2.55900000E+01  8.99700000E+00
  3.31900000E+00  2.80800000E+02  7.92700000E+01  2.55900000E+01  8.99700000E+00
  3.31900000E+00  3.64300000E-01  9.05900000E-01  1.28500000E-01  1.87100000E+01
  4.13300000E+00  1.20000000E+00  3.82700000E-01  1.20900000E-01  1.09700000E+00
  3.18000000E-01  7.61000000E-01  3.38700000E+01  5.09500000E+00  1.15900000E+00
  3.25800000E-01  1.02700000E-01  1.40700000E+00  3.88000000E-01  1.05700000E+00
  3.38700000E+01  5.09500000E+00  1.15900000E+00  3.25800000E-01  1.02700000E-01
  1.40700000E+00  3.88000000E-01  1.05700000E+00
Contraction coefficients                   R   N=          78
  5.41978320E-04  4.19287382E-03  2.15221621E-02  8.35343220E-02  2.39582846E-01
  4.42852842E-01  3.51799562E-01 -5.94922494E-05 -1.14815831E-03 -1.00191374E-02
 -6.12194923E-02 -1.73269854E-01  1.07291519E+00  1.00000000E+00  1.00000000E+00
  3.94263872E-02  2.44088985E-01  8.15492009E-01  1.00000000E+00  1.00000000E+00
  1.00000000E+00  1.00000000E+00  1.00000000E+00  2.54948632E-02  1.90362766E-01
  8.52162022E-01  1.00000000E+00  1.00000000E+00  1.00000000E+00  1.00000000E+00
  1.00000000E+00  2.54948632E-02  1.90362766E-01  8.52162022E-01  1.00000000E+00
  1.00000000E+00  1.00000000E+00  1.00000000E+00  1.00000000E+00  5.41978320E-04
  4.19287382E-03  2.15221621E-02  8.35343220E-02  2.39582846E-01  4.42852842E-01
  3.51799562E-01 -5.94922494E-05 -1.14815831E-03 -1.00191374E-02 -6.12194923E-02
 -1.73269854E-01  1.07291519E+00  1.00000000E+00  1.00000000E+00  3.94263872E-02
  2.44088985E-01  8.15492009E-01  1.00000000E+00  1.00000000E+00  1.00000000E+00
  1.00000000E+00  1.00000000E+00  2.54948632E-02  1.90362766E-01  8.52162022E-01
  1.00000000E+00  1.00000000E+00  1.00000000E+00  1.00000000E+00  1.00000000E+00
  2.54948632E-02  1.90362766E-01  8.52162022E-01  1.00000000E+00  1.00000000E+00
  1.00000000E+00  1.00000000E+00  1.00000000E+00
Coordinates of each shell                  R   N=         132
  3.71033221E-31 -3.82610415E-31  1.24147227E+00  3.71033221E-31 -3.82610415E-31
  1.24147227E+00  3.71033221E-31 -3.82610415E-31  1.24147227E+00  3.71033221E-31
 -3.82610415E-31  1.24147227E+00  3.71033221E-31 -3.82610415E-31  1.24147227E+00
  3.71033221E-31 -3.82610415E-31  1.24147227E+00  3.71033221E-31 -3.82610415E-31
  1.24147227E+00  3.71033221E-31 -3.82610415E-31  1.24147227E+00  3.71033221E-31
 -3.82610415E-31  1.24147227E+00  3.71033221E-31 -3.82610415E-31  1.24147227E+00
  7.41881911E-31  1.72815845E+00  2.30704491E+00  7.41881911E-31  1.72815845E+00
  2.30704491E+00  7.41881911E-31  1.72815845E+00  2.30704491E+00  7.41881911E-31
  1.72815845E+00  2.30704491E+00  7.41881911E-31  1.72815845E+00  2.30704491E+00
  7.41881911E-31  1.72815845E+00  2.30704491E+00 -2.11638372E-16 -1.72815845E+00
  2.30704491E+00 -2.11638372E-16 -1.72815845E+00  2.30704491E+00 -2.11638372E-16
 -1.72815845E+00  2.30704491E+00 -2.11638372E-16 -1.72815845E+00  2.30704491E+00
 -2.11638372E-16 -1.72815845E+00  2.30704491E+00 -2.11638372E-16 -1.72815845E+00
  2.30704491E+00  1.52036504E-16  6.66889034E-33 -1.24147227E+00  1.52036504E-16
  6.66889034E-33 -1.24147227E+00  1.52036504E-16  6.66889034E-33 -1.24147227E+00
  1.52036504E-16  6.66889034E-33 -1.24147227E+00  1.52036504E-16  6.66889034E-33
 -1.24147227E+00  1.52036504E-16  6.66889034E-33 -1.24147227E+00  1.52036504E-16
  6.66889034E-33 -1.24147227E+00  1.52036504E-16  6.66889034E-33 -1.24147227E+00
  1.52036504E-16  6.66889034E-33 -1.24147227E+00  1.52036504E-16  6.66889034E-33
 -1.24147227E+00 -2.11638372E-16 -1.72815845E+00 -2.30704491E+00 -2.11638372E-16
 -1.72815845E+00 -2.30704491E+00 -2.11638372E-16 -1.72815845E+00 -2.30704491E+00
 -2.11638372E-16 -1.72815845E+00 -2.30704491E+00 -2.11638372E-16 -1.72815845E+00
 -2.30704491E+00 -2.11638372E-16 -1.72815845E+00 -2.30704491E+00  2.82531516E-16
  1.72815845E+00 -2.30704491E+00  2.82531516E-16  1.72815845E+00 -2.30704491E+00
  2.82531516E-16  1.72815845E+00 -2.30704491E+00  2.82531516E-16  1.72815845E+00
 -2.30704491E+00  2.82531516E-16  1.72815845E+00 -2.30704491E+00  2.82531516E-16
  1.72815845E+00 -2.30704491E+00
Num ILSW                                   I              100
ILSW                                       I   N=         100
           0           0           0           0           2           1
           0           0           0           0           0          -1
           5           0           0           0           0           0
           0           0           0           0           0           0
           1           0           0           0           0           0
           0           0      100000           0          -1           0
           0           0           0           0           0           0
           0           0           0           1           0           0
           0 -2000000000           1           0           0           0
           0           0           4          52           0           0
           0           0           0           0           0           0
           0           0           0           6           0           1
           0           0           0           0           0           0
           0           0           0           0           0           0
           0           0           0           0           0           0
           0           0           0           0           0           0
           0           0           0           0
Num RLSW                                   I               52
RLSW                                       R   N=          52
  1.00000000E+00  1.00000000E+00  1.00000000E+00  1.00000000E+00  1.00000000E+00
  0.00000000E+00  0.00000000E+00  1.00000000E+00  0.00000000E+00  0.00000000E+00
  0.00000000E+00  0.00000000E+00  1.00000000E+00  0.00000000E+00  0.00000000E+00
  0.00000000E+00  0.00000000E+00  1.00000000E+00  0.00000000E+00  0.00000000E+00
  0.00000000E+00  0.00000000E+00  1.00000000E+00  0.00000000E+00  0.00000000E+00
  0.00000000E+00  0.00000000E+00  1.00000000E+00  0.00000000E+00  0.00000000E+00
  0.00000000E+00  0.00000000E+00  1.00000000E+00  0.00000000E+00  0.00000000E+00
  0.00000000E+00  0.00000000E+00  0.00000000E+00  1.00000000E+00  1.00000000E+00
  0.00000000E+00  1.00000000E+00  0.00000000E+00  0.00000000E+00  0.00000000E+00
  0.00000000E+00  0.00000000E+00  0.00000000E+00  0.00000000E+00  0.00000000E+00
  0.00000000E+00  0.00000000E+00
MxBond                                     I                3
NBond                                      I   N=           6
           3           1           1           3           1           1
IBond                                      I   N=          18
           2           3           4           1           0           0
           1           0           0           1           5           6
           4           0           0           4           0           0
RBond                                      R   N=          18
  1.00000000E+00  1.00000000E+00  2.00000000E+00  1.00000000E+00  0.00000000E+00
  0.00000000E+00  1.00000000E+00  0.00000000E+00  0.00000000E+00  2.00000000E+00
  1.00000000E+00  1.00000000E+00  1.00000000E+00  0.00000000E+00  0.00000000E+00
  1.00000000E+00  0.00000000E+00  0.00000000E+00
Virial Ratio                               R      2.000280715730689E+00
SCF Energy                                 R     -7.806442000935490E+01
Total Energy                               R     -7.806442000935490E+01
RMS Density                                R      6.486521206879872E-10
Job Status                                 I                1
Nuclear derivative order                   I                0
External E-field                           R   N=          35
  0.00000000E+00  0.00000000E+00  0.00000000E+00  0.00000000E+00  0.00000000E+00
  0.00000000E+00  0.00000000E+00  0.00000000E+00  0.00000000E+00  0.00000000E+00
  0.00000000E+00  0.00000000E+00  0.00000000E+00  0.00000000E+00  0.00000000E+00
  0.00000000E+00  0.00000000E+00  0.00000000E+00  0.00000000E+00  0.00000000E+00
  0.00000000E+00  0.00000000E+00  0.00000000E+00  0.00000000E+00  0.00000000E+00
  0.00000000E+00  0.00000000E+00  0.00000000E+00  0.00000000E+00  0.00000000E+00
  0.00000000E+00  0.00000000E+00  0.00000000E+00  0.00000000E+00  0.00000000E+00
IOpCl                                      I                0
IROHF                                      I                0
Alpha Orbital Energies                     R   N=         116
 -1.12241348E+01 -1.12222383E+01 -1.03916863E+00 -7.93087250E-01 -6.46397283E-01
 -5.91325163E-01 -5.05291398E-01 -3.80566312E-01  1.56025986E-01  1.59836592E-01
  1.88232120E-01  1.91038636E-01  2.41912648E-01  3.70335232E-01  3.72941618E-01
  4.43730127E-01  4.44574647E-01  4.85595165E-01  5.67319365E-01  5.93419406E-01
  5.94937527E-01  6.39123641E-01  6.42048358E-01  6.79125331E-01  6.96630766E-01
  8.05214953E-01  8.33804098E-01  8.59055616E-01  8.81206850E-01  9.91192066E-01
  1.08945467E+00  1.10285225E+00  1.18797138E+00  1.21079208E+00  1.22432492E+00
  1.23491826E+00  1.30859550E+00  1.32699850E+00  1.38020275E+00  1.47517815E+00
  1.49063393E+00  1.55484150E+00  1.59399857E+00  1.59905539E+00  1.62117691E+00
  1.82279467E+00  1.84278390E+00  1.89803216E+00  2.30359916E+00  2.36613882E+00
  2.56078760E+00  2.56114363E+00  2.61811321E+00  2.65362455E+00  2.71840823E+00
  2.74802572E+00  2.89604248E+00  2.95311823E+00  3.08260508E+00  3.09951081E+00
  3.10046655E+00  3.10073715E+00  3.12543796E+00  3.14692243E+00  3.16257328E+00
  3.20987702E+00  3.23817029E+00  3.36255365E+00  3.40917938E+00  3.41810003E+00
  3.42638029E+00  3.48520046E+00  3.50276287E+00  3.52149714E+00  3.60607630E+00
  3.61945208E+00  3.74653826E+00  3.80634717E+00  3.93160597E+00  3.94775345E+00
  3.96156936E+00  4.02841858E+00  4.03785993E+00  4.05335645E+00  4.13459709E+00
  4.19863024E+00  4.23803835E+00  4.23868659E+00  4.29511440E+00  4.35357654E+00
  4.37636009E+00  4.42523974E+00  4.46782430E+00  4.58466660E+00  4.71969214E+00
  4.87918924E+00  4.89511037E+00  4.92924552E+00  4.98547955E+00  5.04611748E+00
  5.13345807E+00  5.25564456E+00  5.25908672E+00  5.41942356E+00  5.43637648E+00
  5.46882207E+00  5.55820340E+00  5.56354108E+00  5.68491266E+00  5.80273818E+00
  6.26749547E+00  6.40012310E+00  6.46727477E+00  6.89334673E+00  1.19590159E+01
  1.51036997E+01
Alpha MO coefficients                      R   N=       13456
  6.91750997E-01 -5.33394508E-03  2.94750828E-02  2.48606771E-03  0.00000000E+00
  0.00000000E+00  1.14460481E-04  0.00000000E+00  0.00000000E+00 -4.18906122E-04
  0.00000000E+00  0.00000000E+00  2.30845874E-04  2.00245265E-04  0.00000000E+00
  0.00000000E+00 -3.64377444E-04  0.00000000E+00 -2.49676626E-04  0.00000000E+00
  0.00000000E+00 -1.56349274E-04  0.00000000E+00 -2.60447637E-04  0.00000000E+00
  0.00000000E+00 -3.12504435E-04  0.00000000E+00  0.00000000E+00  0.00000000E+00
  4.93287206E-05  3.55802482E-05 -5.21246182E-04  0.00000000E+00  2.01020652E-04
  1.37054039E-04  0.00000000E+00 -9.90422005E-05  1.49428534E-04  1.02048253E-05
  0.00000000E+00 -1.76894644E-04  5.34875045E-05  0.00000000E+00  4.93287206E-05
  3.55802482E-05 -5.21246182E-04  0.00000000E+00 -2.01020652E-04  1.37054039E-04
  0.00000000E+00  9.90422005E-05  1.49428534E-04  1.02048253E-05  0.00000000E+00
  1.76894644E-04  5.34875045E-05  0.00000000E+00  6.91750997E-01 -5.33394508E-03
  2.94750828E-02  2.48606771E-03  0.00000000E+00  0.00000000E+00 -1.14460481E-04
  0.00000000E+00  0.00000000E+00  4.18906122E-04  0.00000000E+00  0.00000000E+00
 -2.30845874E-04  2.00245265E-04  0.00000000E+00  0.00000000E+00 -3.64377444E-04
  0.00000000E+00 -2.49676626E-04  0.00000000E+00  0.00000000E+00 -1.56349274E-04
  0.00000000E+00  2.60447637E-04  0.00000000E+00  0.00000000E+00  3.12504435E-04
  0.00000000E+00  0.00000000E+00  0.00000000E+00  4.93287206E-05  3.55802482E-05
 -5.21246182E-04  0.00000000E+00 -2.01020652E-04 -1.37054039E-04  0.00000000E+00
  9.90422005E-05 -1.49428534E-04  1.02048253E-05  0.00000000E+00 -1.76894644E-04
  5.34875045E-05  0.00000000E+00  4.93287206E-05  3.55802482E-05 -5.21246182E-04
  0.00000000E+00  2.01020652E-04 -1.37054039E-04  0.00000000E+00 -9.90422005E-05
 -1.49428534E-04  1.02048253E-05  0.00000000E+00  1.76894644E-04  5.34875045E-05
  0.00000000E+00  6.92234217E-01 -4.49621332E-03  2.93579200E-02  3.95222110E-03
  0.00000000E+00  0.00000000E+00  5.45786209E-04  0.00000000E+00  0.00000000E+00
 -3.87192659E-03  0.00000000E+00  0.00000000E+00 -1.50053654E-03  6.86199897E-04
  0.00000000E+00  0.00000000E+00 -4.76510486E-04  0.00000000E+00  1.77028210E-03
  0.00000000E+00  0.00000000E+00  1.23603478E-03  0.00000000E+00 -7.48226816E-04
  0.00000000E+00  0.00000000E+00 -3.94154786E-04  0.00000000E+00  0.00000000E+00
  0.00000000E+00  5.72670966E-05  1.86606568E-03 -4.24137656E-05  0.00000000E+00
  2.04276683E-04  1.33118502E-04  0.00000000E+00 -4.23491679E-04 -6.65111299E-04
  7.60642980E-05  0.00000000E+00 -1.55565240E-04  8.31945488E-05  0.00000000E+00
  5.72670966E-05  1.86606568E-03 -4.24137656E-05  0.00000000E+00 -2.04276683E-04
  1.33118502E-04  0.00000000E+00  4.23491679E-04 -6.65111299E-04  7.60642980E-05
  0.00000000E+00  1.55565240E-04  8.31945488E-05  0.00000000E+00 -6.92234217E-01
  4.49621332E-03 -2.93579200E-02 -3.95222110E-03  0.00000000E+00  0.00000000E+00
  5.45786209E-04  0.00000000E+00  0.00000000E+00 -3.87192659E-03  0.00000000E+00
  0.00000000E+00 -1.50053654E-03 -6.86199897E-04  0.00000000E+00  0.00000000E+00
  4.76510486E-04  0.00000000E+00 -1.77028210E-03  0.00000000E+00  0.00000000E+00
 -1.23603478E-03  0.00000000E+00 -7.48226816E-04  0.00000000E+00  0.00000000E+00
 -3.94154786E-04  0.00000000E+00  0.00000000E+00  0.00000000E+00 -5.72670966E-05
 -1.86606568E-03  4.24137656E-05  0.00000000E+00  2.04276683E-04  1.33118502E-04
  0.00000000E+00 -4.23491679E-04 -6.65111299E-04 -7.60642980E-05  0.00000000E+00
  1.55565240E-04 -8.31945488E-05  0.00000000E+00 -5.72670966E-05 -1.86606568E-03
  4.24137656E-05  0.00000000E+00 -2.04276683E-04  1.33118502E-04  0.00000000E+00
  4.23491679E-04 -6.65111299E-04 -7.60642980E-05  0.00000000E+00 -1.55565240E-04
 -8.31945488E-05  0.00000000E+00 -1.46220433E-01  3.48207675E-01  7.21081878E-02
  1.28836130E-01  0.00000000E+00  0.00000000E+00 -6.54644090E-02  0.00000000E+00
  0.00000000E+00 -5.04747717E-02  0.00000000E+00  0.00000000E+00 -5.22368063E-03
  1.27402803E-02  0.00000000E+00  0.00000000E+00 -6.81249426E-03  0.00000000E+00
  9.06898697E-03  0.00000000E+00  0.00000000E+00 -1.01594807E-02  0.00000000E+00
 -7.36370367E-03  0.00000000E+00  0.00000000E+00 -4.91284361E-03  0.00000000E+00
  0.00000000E+00  0.00000000E+00  5.00194907E-02  3.52399169E-02  1.52420170E-03
  0.00000000E+00 -3.16248737E-03 -3.08510471E-03  0.00000000E+00  5.77962250E-03
  3.12565820E-03  5.84822618E-04  0.00000000E+00 -3.60020048E-04  4.54005985E-04
  0.00000000E+00  5.00194907E-02  3.52399169E-02  1.52420170E-03  0.00000000E+00
  3.16248737E-03 -3.08510471E-03  0.00000000E+00 -5.77962250E-03  3.12565820E-03
  5.84822618E-04  0.00000000E+00  3.60020048E-04  4.54005985E-04  0.00000000E+00
 -1.46220433E-01  3.48207675E-01  7.21081878E-02  1.28836130E-01  0.00000000E+00
  0.00000000E+00  6.54644090E-02  0.00000000E+00  0.00000000E+00  5.04747717E-02
  0.00000000E+00  0.00000000E+00  5.22368063E-03  1.27402803E-02  0.00000000E+00
  0.00000000E+00 -6.81249426E-03  0.00000000E+00  9.06898697E-03  0.00000000E+00
  0.00000000E+00 -1.01594807E-02  0.00000000E+00  7.36370367E-03  0.00000000E+00
  0.00000000E+00  4.91284361E-03  0.00000000E+00  0.00000000E+00  0.00000000E+00
  5.00194907E-02  3.52399169E-02  1.52420170E-03  0.00000000E+00  3.16248737E-03
  3.08510471E-03  0.00000000E+00 -5.77962250E-03 -3.12565820E-03  5.84822618E-04
  0.00000000E+00 -3.60020048E-04  4.54005985E-04  0.00000000E+00  5.00194907E-02
  3.52399169E-02  1.52420170E-03  0.00000000E+00 -3.16248737E-03  3.08510471E-03
  0.00000000E+00  5.77962250E-03 -3.12565820E-03  5.84822618E-04  0.00000000E+00
  3.60020048E-04  4.54005985E-04  0.00000000E+00 -1.10016459E-01  2.75853706E-01
  5.79672416E-02  1.87661125E-01  0.00000000E+00  0.00000000E+00  8.97122887E-02
  0.00000000E+00  0.00000000E+00  1.03408946E-01  0.00000000E+00  0.00000000E+00
  1.95553812E-02 -6.50062365E-04  0.00000000E+00  0.00000000E+00 -9.51729241E-03
  0.00000000E+00  1.44266255E-03  0.00000000E+00  0.00000000E+00 -1.84403074E-02
  0.00000000E+00 -3.51021640E-03  0.00000000E+00  0.00000000E+00 -3.17184598E-03
  0.00000000E+00  0.00000000E+00  0.00000000E+00  8.86875230E-02  1.07128892E-01
  2.28114438E-02  0.00000000E+00 -8.11450704E-03 -3.35072932E-03  0.00000000E+00
 -5.59871932E-03  6.04426294E-04 -8.77204076E-04  0.00000000E+00  1.02777929E-03
 -1.35126846E-03  0.00000000E+00  8.86875230E-02  1.07128892E-01  2.28114438E-02
  0.00000000E+00  8.11450704E-03 -3.35072932E-03  0.00000000E+00  5.59871932E-03
  6.04426294E-04 -8.77204076E-04  0.00000000E+00 -1.02777929E-03 -1.35126846E-03
  0.00000000E+00  1.10016459E-01 -2.75853706E-01 -5.79672416E-02 -1.87661125E-01
  0.00000000E+00  0.00000000E+00  8.97122887E-02  0.00000000E+00  0.00000000E+00
  1.03408946E-01  0.00000000E+00  0.00000000E+00  1.95553812E-02  6.50062365E-04
  0.00000000E+00  0.00000000E+00  9.51729241E-03  0.00000000E+00 -1.44266255E-03
  0.00000000E+00  0.00000000E+00  1.84403074E-02  0.00000000E+00 -3.51021640E-03
  0.00000000E+00  0.00000000E+00 -3.17184598E-03  0.00000000E+00  0.00000000E+00
  0.00000000E+00 -8.86875230E-02 -1.07128892E-01 -2.28114438E-02  0.00000000E+00
 -8.11450704E-03 -3.35072932E-03  0.00000000E+00 -5.59871932E-03  6.04426294E-04
  8.77204076E-04  0.00000000E+00 -1.02777929E-03  1.35126846E-03  0.00000000E+00
 -8.86875230E-02 -1.07128892E-01 -2.28114438E-02  0.00000000E+00  8.11450704E-03
 -3.35072932E-03  0.00000000E+00  5.59871932E-03  6.04426294E-04  8.77204076E-04
  0.00000000E+00  1.02777929E-03  1.35126846E-03  0.00000000E+00  0.00000000E+00
  0.00000000E+00  0.00000000E+00  0.00000000E+00  0.00000000E+00  1.75126357E-01
  0.00000000E+00  0.00000000E+00  2.07400111E-01  0.00000000E+00  0.00000000E+00
  7.40412025E-02  0.00000000E+00  0.00000000E+00  0.00000000E+00  4.48100637E-03
  0.00000000E+00  0.00000000E+00  0.00000000E+00  0.00000000E+00  4.11560042E-03
  0.00000000E+00  0.00000000E+00  0.00000000E+00  0.00000000E+00  5.14824436E-03
  0.00000000E+00  0.00000000E+00  0.00000000E+00 -1.02531262E-03  9.39318318E-02
  1.45159224E-01  4.35142515E-02  0.00000000E+00 -6.21088224E-03 -7.01444827E-03
  0.00000000E+00 -6.99251523E-03 -9.43349316E-03  1.37073707E-03  0.00000000E+00
  2.98232285E-03 -9.20362067E-04  0.00000000E+00 -9.39318318E-02 -1.45159224E-01
 -4.35142515E-02  0.00000000E+00 -6.21088224E-03  7.01444827E-03  0.00000000E+00
 -6.99251523E-03  9.43349316E-03 -1.37073707E-03  0.00000000E+00  2.98232285E-03
  9.20362067E-04  0.00000000E+00  0.00000000E+00  0.00000000E+00  0.00000000E+00
  0.00000000E+00  0.00000000E+00  1.75126357E-01  0.00000000E+00  0.00000000E+00
  2.07400111E-01  0.00000000E+00  0.00000000E+00  7.40412025E-02  0.00000000E+00
  0.00000000E+00  0.00000000E+00 -4.48100637E-03  0.00000000E+00  0.00000000E+00
  0.00000000E+00  0.00000000E+00 -4.11560042E-03  0.00000000E+00  0.00000000E+00
  0.00000000E+00  0.00000000E+00  5.14824436E-03  0.00000000E+00  0.00000000E+00
  0.00000000E+00 -1.02531262E-03 -9.39318318E-02 -1.45159224E-01 -4.35142515E-02
  0.00000000E+00 -6.21088224E-03 -7.01444827E-03  0.00000000E+00 -6.99251523E-03
 -9.43349316E-03 -1.37073707E-03  0.00000000E+00 -2.98232285E-03  9.20362067E-04
  0.00000000E+00  9.39318318E-02  1.45159224E-01  4.35142515E-02  0.00000000E+00
 -6.21088224E-03  7.01444827E-03  0.00000000E+00 -6.99251523E-03  9.43349316E-03
  1.37073707E-03  0.00000000E+00 -2.98232285E-03 -9.20362067E-04  0.00000000E+00
  1.05040659E-02 -2.76363182E-02 -4.85361249E-03  1.80143497E-02  0.00000000E+00
  0.00000000E+00  2.29150055E-01  0.00000000E+00  0.00000000E+00  2.61672851E-01