C2H4_cc-pvdz                                                            
Stability RHF                                                         CC-pVDZ             
Number of atoms                            I                6
Info1-9                                    I   N=           9
          13           9           0           0           0         110
           7           1           2
Full Title                                 C   N=           1
C2H4_cc-pvdz
Route                                      C   N=          14
#p hf/cc-pvdz stable=opt guess=read geom=check scf=(maxcycle
=900,verytightlineq,xqc) integral=grid=ultrafine density=cur
rent pop=(cm5,hlygat,mbs,npa) output=wfx        
Charge                                     I                0
Multiplicity                               I                1
Number of electrons                        I               16
Number of alpha electrons                  I                8
Number of beta electrons                   I                8
Number of basis functions                  I               48
Number of independent functions            I               48
Number of point charges in /Mol/           I                0
Number of translation vectors              I                0
Atomic numbers                             I   N=           6
           6           1           1           6           1           1
Nuclear charges                            R   N=           6
  6.00000000E+00  1.00000000E+00  1.00000000E+00  6.00000000E+00  1.00000000E+00
  1.00000000E+00
Current cartesian coordinates              R   N=          18
 -1.41331444E-15 -8.50766406E-17  1.24804461E+00  3.21359945E-15  1.74354670E+00
  2.32302264E+00 -9.10524186E-15 -1.74354670E+00  2.32302264E+00  2.05009465E-15
  1.68343367E-16 -1.24804461E+00 -2.94318351E-15 -1.74354670E+00 -2.32302264E+00
  9.66014602E-15  1.74354670E+00 -2.32302264E+00
Number of symbols in /Mol/                 I                0
Int Atom Types                             I   N=           6
           0           0           0           0           0           0
Force Field                                I                0
Atom Types                                 C   N=           6
                                                            
            
MM charges                                 R   N=           6
  0.00000000E+00  0.00000000E+00  0.00000000E+00  0.00000000E+00  0.00000000E+00
  0.00000000E+00
Integer atomic weights                     I   N=           6
          12           1           1          12           1           1
Real atomic weights                        R   N=           6
  1.20000000E+01  1.00782504E+00  1.00782504E+00  1.20000000E+01  1.00782504E+00
  1.00782504E+00
Atom fragment info                         I   N=           6
           0           0           0           0           0           0
Atom residue num                           I   N=           6
           0           0           0           0           0           0
Nuclear spins                              I   N=           6
           0           1           1           0           1           1
Nuclear ZEff                               R   N=           6
 -3.60000000E+00 -1.00000000E+00 -1.00000000E+00 -3.60000000E+00 -1.00000000E+00
 -1.00000000E+00
Nuclear ZNuc                               R   N=           6
  6.00000000E+00  1.00000000E+00  1.00000000E+00  6.00000000E+00  1.00000000E+00
  1.00000000E+00
Nuclear QMom                               R   N=           6
  0.00000000E+00  0.00000000E+00  0.00000000E+00  0.00000000E+00  0.00000000E+00
  0.00000000E+00
Nuclear GFac                               R   N=           6
  0.00000000E+00  2.79284600E+00  2.79284600E+00  0.00000000E+00  2.79284600E+00
  2.79284600E+00
MicOpt                                     I   N=           6
          -1          -1          -1          -1          -1          -1
Number of residues                         I                0
Number of secondary structures             I                0
Redundant internal dimensions              I   N=           4
          15           5           6           4
Redundant internal coordinate indices      I   N=          60
           1           2           0           0           1           3
           0           0           1           4           0           0
           4           5           0           0           4           6
           0           0           2           1           3           0
           2           1           4           0           3           1
           4           0           1           4           5           0
           1           4           6           0           5           4
           6           0           2           1           4           5
           2           1           4           6           3           1
           4           5           3           1           4           6
Redundant internal coordinates             R   N=          15
  2.04829999E+00  2.04829999E+00  2.49608922E+00  2.04829999E+00  2.04829999E+00
  2.03659774E+00  2.12329379E+00  2.12329379E+00  2.12329379E+00  2.12329379E+00
  2.03659774E+00  3.14159265E+00 -0.00000000E+00  0.00000000E+00  3.14159265E+00
ZRed-IntVec                                I   N=          15
           0           0           0           0           0           0
           0           0           0           0           0           0
           0           0           0
ZRed-FPVec                                 R   N=          15
  0.00000000E+00  0.00000000E+00  0.00000000E+00  0.00000000E+00  0.00000000E+00
  0.00000000E+00  0.00000000E+00  0.00000000E+00  0.00000000E+00  0.00000000E+00
  0.00000000E+00  0.00000000E+00  0.00000000E+00  0.00000000E+00  0.00000000E+00
ZRed-Constraint1                           R   N=          15
  2.04829999E+00  2.04829999E+00  2.49608922E+00  2.04829999E+00  2.04829999E+00
  2.03659774E+00  2.12329379E+00  2.12329379E+00  2.12329379E+00  2.12329379E+00
  2.03659774E+00  3.14159265E+00  0.00000000E+00  0.00000000E+00  3.14159265E+00
ZRed-Constraint2                           R   N=          15
  2.04575199E+00  2.04575199E+00  2.50358664E+00  2.04575199E+00  2.04575199E+00
  2.03416393E+00  2.12451069E+00  2.12451069E+00  2.12451069E+00  2.12451069E+00
  2.03416393E+00  3.14159265E+00  0.00000000E+00  0.00000000E+00  3.14159265E+00
SymInf integers                            I   N=          26
           4           8           1           1           1          -1
          -1           1          -1           1          -1           1
          -1          -1          -1           1           1           1
          -1           1           1           1          -1          -1
          -1          -1
RotTr to input orientation                 R   N=          12
  1.00000000E+00 -3.47146378E-15  1.32630183E-15  3.47146378E-15  1.00000000E+00
  1.01526823E-16 -1.32630183E-15 -1.01526823E-16  1.00000000E+00  2.41969413E-16
  4.16333634E-17  0.00000000E+00
Number of contracted shells                I               24
Number of primitive shells                 I               60
Pure/Cartesian d shells                    I                0
Pure/Cartesian f shells                    I                0
Highest angular momentum                   I                2
Largest degree of contraction              I                7
Shell types                                I   N=          24
           0           0           0           1           1          -2
           0           0           1           0           0           1
           0           0           0           1           1          -2
           0           0           1           0           0           1
Number of primitives per shell             I   N=          24
           7           7           1           3           1           1
           3           1           1           3           1           1
           7           7           1           3           1           1
           3           1           1           3           1           1
Shell to atom map                          I   N=          24
           1           1           1           1           1           1
           2           2           2           3           3           3
           4           4           4           4           4           4
           5           5           5           6           6           6
Primitive exponents                        R   N=          60
  6.66500000E+03  1.00000000E+03  2.28000000E+02  6.47100000E+01  2.10600000E+01
  7.49500000E+00  2.79700000E+00  6.66500000E+03  2.28000000E+02  6.47100000E+01
  2.10600000E+01  7.49500000E+00  2.79700000E+00  5.21500000E-01  1.59600000E-01
  9.43900000E+00  2.00200000E+00  5.45600000E-01  1.51700000E-01  5.50000000E-01
  1.30100000E+01  1.96200000E+00  4.44600000E-01  1.22000000E-01  7.27000000E-01
  1.30100000E+01  1.96200000E+00  4.44600000E-01  1.22000000E-01  7.27000000E-01
  6.66500000E+03  1.00000000E+03  2.28000000E+02  6.47100000E+01  2.10600000E+01
  7.49500000E+00  2.79700000E+00  6.66500000E+03  2.28000000E+02  6.47100000E+01
  2.10600000E+01  7.49500000E+00  2.79700000E+00  5.21500000E-01  1.59600000E-01
  9.43900000E+00  2.00200000E+00  5.45600000E-01  1.51700000E-01  5.50000000E-01
  1.30100000E+01  1.96200000E+00  4.44600000E-01  1.22000000E-01  7.27000000E-01
  1.30100000E+01  1.96200000E+00  4.44600000E-01  1.22000000E-01  7.27000000E-01
Contraction coefficients                   R   N=          60
  6.93516317E-04  5.34150243E-03  2.71366714E-02  1.01992385E-01  2.75508636E-01
  4.51086433E-01  2.87565745E-01  7.73354740E-06  2.78072137E-04 -2.57875654E-03
 -8.95087684E-03 -1.06058855E-01 -1.31517686E-01  1.09948660E+00  1.00000000E+00
  5.69792516E-02  3.13207212E-01  7.60376742E-01  1.00000000E+00  1.00000000E+00
  3.34987264E-02  2.34800801E-01  8.13682958E-01  1.00000000E+00  1.00000000E+00
  3.34987264E-02  2.34800801E-01  8.13682958E-01  1.00000000E+00  1.00000000E+00
  6.93516317E-04  5.34150243E-03  2.71366714E-02  1.01992385E-01  2.75508636E-01
  4.51086433E-01  2.87565745E-01  7.73354740E-06  2.78072137E-04 -2.57875654E-03
 -8.95087684E-03 -1.06058855E-01 -1.31517686E-01  1.09948660E+00  1.00000000E+00
  5.69792516E-02  3.13207212E-01  7.60376742E-01  1.00000000E+00  1.00000000E+00
  3.34987264E-02  2.34800801E-01  8.13682958E-01  1.00000000E+00  1.00000000E+00
  3.34987264E-02  2.34800801E-01  8.13682958E-01  1.00000000E+00  1.00000000E+00
Coordinates of each shell                  R   N=          72
 -1.35930463E-31 -7.54660872E-32  1.24804461E+00 -1.35930463E-31 -7.54660872E-32
  1.24804461E+00 -1.35930463E-31 -7.54660872E-32  1.24804461E+00 -1.35930463E-31
 -7.54660872E-32  1.24804461E+00 -1.35930463E-31 -7.54660872E-32  1.24804461E+00
 -1.35930463E-31 -7.54660872E-32  1.24804461E+00 -6.87164649E-32  1.74354670E+00
  2.32302264E+00 -6.87164649E-32  1.74354670E+00  2.32302264E+00 -6.87164649E-32
  1.74354670E+00  2.32302264E+00 -2.13522888E-16 -1.74354670E+00  2.32302264E+00
 -2.13522888E-16 -1.74354670E+00  2.32302264E+00 -2.13522888E-16 -1.74354670E+00
  2.32302264E+00  1.52841384E-16 -2.31415260E-32 -1.24804461E+00  1.52841384E-16
 -2.31415260E-32 -1.24804461E+00  1.52841384E-16 -2.31415260E-32 -1.24804461E+00
  1.52841384E-16 -2.31415260E-32 -1.24804461E+00  1.52841384E-16 -2.31415260E-32
 -1.24804461E+00  1.52841384E-16 -2.31415260E-32 -1.24804461E+00 -2.13522888E-16
 -1.74354670E+00 -2.32302264E+00 -2.13522888E-16 -1.74354670E+00 -2.32302264E+00
 -2.13522888E-16 -1.74354670E+00 -2.32302264E+00  2.84488224E-16  1.74354670E+00
 -2.32302264E+00  2.84488224E-16  1.74354670E+00 -2.32302264E+00  2.84488224E-16
  1.74354670E+00 -2.32302264E+00
Num ILSW                                   I              100
ILSW                                       I   N=         100
           0           0           0           0           2           1
           0           0           0           0           0          -1
           5           0           0           0           0           0
           0           0           0           0           0           0
           1           0           0           0           0           0
           0           0      100000           0          -1           0
           0           0           0           0           0           0
           0           0           0           1           0           0
           0 -2000000000           1           0           0           0
           0           0           4          52           0           0
           0           0           0           0           0           0
           0           0           0           6           0           1
           0           0           0           0           0           0
           0           0           0           0           0           0
           0           0           0           0           0           0
           0           0           0           0           0           0
           0           0           0           0
Num RLSW                                   I               52
RLSW                                       R   N=          52
  1.00000000E+00  1.00000000E+00  1.00000000E+00  1.00000000E+00  1.00000000E+00
  0.00000000E+00  0.00000000E+00  1.00000000E+00  0.00000000E+00  0.00000000E+00
  0.00000000E+00  0.00000000E+00  1.00000000E+00  0.00000000E+00  0.00000000E+00
  0.00000000E+00  0.00000000E+00  1.00000000E+00  0.00000000E+00  0.00000000E+00
  0.00000000E+00  0.00000000E+00  1.00000000E+00  0.00000000E+00  0.00000000E+00
  0.00000000E+00  0.00000000E+00  1.00000000E+00  0.00000000E+00  0.00000000E+00
  0.00000000E+00  0.00000000E+00  1.00000000E+00  0.00000000E+00  0.00000000E+00
  0.00000000E+00  0.00000000E+00  0.00000000E+00  1.00000000E+00  1.00000000E+00
  0.00000000E+00  1.00000000E+00  0.00000000E+00  0.00000000E+00  0.00000000E+00
  0.00000000E+00  0.00000000E+00  0.00000000E+00  0.00000000E+00  0.00000000E+00
  0.00000000E+00  0.00000000E+00
MxBond                                     I                3
NBond                                      I   N=           6
           3           1           1           3           1           1
IBond                                      I   N=          18
           2           3           4           1           0           0
           1           0           0           1           5           6
           4           0           0           4           0           0
RBond                                      R   N=          18
  1.00000000E+00  1.00000000E+00  2.00000000E+00  1.00000000E+00  0.00000000E+00
  0.00000000E+00  1.00000000E+00  0.00000000E+00  0.00000000E+00  2.00000000E+00
  1.00000000E+00  1.00000000E+00  1.00000000E+00  0.00000000E+00  0.00000000E+00
  1.00000000E+00  0.00000000E+00  0.00000000E+00
Virial Ratio                               R      2.001432316367623E+00
SCF Energy                                 R     -7.804016529602737E+01
Total Energy                               R     -7.804016529602737E+01
RMS Density                                R      5.756651549481561E-10
Job Status                                 I                1
Nuclear derivative order                   I                0
External E-field                           R   N=          35
  0.00000000E+00  0.00000000E+00  0.00000000E+00  0.00000000E+00  0.00000000E+00
  0.00000000E+00  0.00000000E+00  0.00000000E+00  0.00000000E+00  0.00000000E+00
  0.00000000E+00  0.00000000E+00  0.00000000E+00  0.00000000E+00  0.00000000E+00
  0.00000000E+00  0.00000000E+00  0.00000000E+00  0.00000000E+00  0.00000000E+00
  0.00000000E+00  0.00000000E+00  0.00000000E+00  0.00000000E+00  0.00000000E+00
  0.00000000E+00  0.00000000E+00  0.00000000E+00  0.00000000E+00  0.00000000E+00
  0.00000000E+00  0.00000000E+00  0.00000000E+00  0.00000000E+00  0.00000000E+00
IOpCl                                      I                0
IROHF                                      I                0
Alpha Orbital Energies                     R   N=          48
 -1.12341735E+01 -1.12324091E+01 -1.03518363E+00 -7.88357137E-01 -6.39792883E-01
 -5.85553192E-01 -5.00624810E-01 -3.77016546E-01  1.71010505E-01  2.03911527E-01
  2.32131451E-01  2.38723073E-01  3.04019513E-01  4.65565356E-01  5.76607653E-01
  6.12976966E-01  6.86517864E-01  7.08672755E-01  7.86662099E-01  8.09173614E-01
  8.59484724E-01  9.36101021E-01  9.78863338E-01  1.00930550E+00  1.12972305E+00
  1.23889843E+00  1.24910174E+00  1.26885917E+00  1.29544941E+00  1.59666603E+00
  1.73545764E+00  1.75491428E+00  1.81924407E+00  1.85983127E+00  1.86896204E+00
  1.91758222E+00  1.96912650E+00  1.98280297E+00  2.23188553E+00  2.26377834E+00
  2.37315316E+00  2.44799688E+00  2.51237829E+00  2.64934229E+00  2.70759664E+00
  2.82251533E+00  3.13043338E+00  3.41109215E+00
Alpha MO coefficients                      R   N=        2304
  7.04961494E-01  1.23500418E-02 -4.09182303E-03  0.00000000E+00  0.00000000E+00
  2.40831167E-04  0.00000000E+00  0.00000000E+00 -4.42742433E-04  2.94458974E-04
  0.00000000E+00  0.00000000E+00 -1.89802816E-04  0.00000000E+00 -1.71570144E-04
  1.04543689E-03  0.00000000E+00  2.79770481E-04  5.02567955E-05 -1.71570144E-04
  1.04543689E-03  0.00000000E+00 -2.79770481E-04  5.02567955E-05  7.04961494E-01
  1.23500418E-02 -4.09182303E-03  0.00000000E+00  0.00000000E+00 -2.40831167E-04
  0.00000000E+00  0.00000000E+00  4.42742433E-04  2.94458974E-04  0.00000000E+00
  0.00000000E+00 -1.89802816E-04  0.00000000E+00 -1.71570144E-04  1.04543689E-03
  0.00000000E+00 -2.79770481E-04 -5.02567955E-05 -1.71570144E-04  1.04543689E-03
  0.00000000E+00  2.79770481E-04 -5.02567955E-05  7.05361913E-01  1.30421455E-02
 -6.53732932E-03  0.00000000E+00  0.00000000E+00  1.19592874E-04  0.00000000E+00
  0.00000000E+00  1.07387579E-03  3.94182438E-04  0.00000000E+00  0.00000000E+00
 -7.38554926E-04  0.00000000E+00 -4.06694557E-04  6.97472849E-04  0.00000000E+00
  4.65705461E-04  2.90158399E-04 -4.06694557E-04  6.97472849E-04  0.00000000E+00
 -4.65705461E-04  2.90158399E-04 -7.05361913E-01 -1.30421455E-02  6.53732932E-03
  0.00000000E+00  0.00000000E+00  1.19592874E-04  0.00000000E+00  0.00000000E+00
  1.07387579E-03 -3.94182438E-04  0.00000000E+00  0.00000000E+00  7.38554926E-04
  0.00000000E+00  4.06694557E-04 -6.97472849E-04  0.00000000E+00  4.65705461E-04
  2.90158399E-04  4.06694557E-04 -6.97472849E-04  0.00000000E+00 -4.65705461E-04
  2.90158399E-04 -1.53705083E-01  2.96725422E-01  1.91230653E-01  0.00000000E+00
  0.00000000E+00 -1.20782923E-01  0.00000000E+00  0.00000000E+00 -2.52278153E-02
  1.93228908E-02  0.00000000E+00  0.00000000E+00  2.37079278E-03  0.00000000E+00
  1.11229013E-01  7.27591301E-03  0.00000000E+00 -1.46940805E-02 -1.11258095E-02
  1.11229013E-01  7.27591301E-03  0.00000000E+00  1.46940805E-02 -1.11258095E-02
 -1.53705083E-01  2.96725422E-01  1.91230653E-01  0.00000000E+00  0.00000000E+00
  1.20782923E-01  0.00000000E+00  0.00000000E+00  2.52278153E-02  1.93228908E-02
  0.00000000E+00  0.00000000E+00  2.37079278E-03  0.00000000E+00  1.11229013E-01
  7.27591301E-03  0.00000000E+00  1.46940805E-02  1.11258095E-02  1.11229013E-01
  7.27591301E-03  0.00000000E+00 -1.46940805E-02  1.11258095E-02 -1.15516888E-01
  2.33891184E-01  1.54565699E-01  0.00000000E+00  0.00000000E+00  1.62307411E-01
  0.00000000E+00  0.00000000E+00  7.54816144E-02 -9.95493666E-03  0.00000000E+00
  0.00000000E+00 -6.06933336E-03  0.00000000E+00  1.97998863E-01  3.56657177E-02
  0.00000000E+00 -2.08601739E-02 -9.14932536E-03  1.97998863E-01  3.56657177E-02
  0.00000000E+00  2.08601739E-02 -9.14932536E-03  1.15516888E-01 -2.33891184E-01
 -1.54565699E-01  0.00000000E+00  0.00000000E+00  1.62307411E-01  0.00000000E+00
  0.00000000E+00  7.54816144E-02  9.95493666E-03  0.00000000E+00  0.00000000E+00
  6.06933336E-03  0.00000000E+00 -1.97998863E-01 -3.56657177E-02  0.00000000E+00
 -2.08601739E-02 -9.14932536E-03 -1.97998863E-01 -3.56657177E-02  0.00000000E+00
  2.08601739E-02 -9.14932536E-03  0.00000000E+00  0.00000000E+00  0.00000000E+00
  0.00000000E+00  3.12079248E-01  0.00000000E+00  0.00000000E+00  1.15394217E-01
  0.00000000E+00  0.00000000E+00  0.00000000E+00  1.69772424E-04  0.00000000E+00
  0.00000000E+00  2.09934930E-01  6.12514114E-02  0.00000000E+00 -1.10427017E-02
 -1.08272782E-02 -2.09934930E-01 -6.12514114E-02  0.00000000E+00 -1.10427017E-02
  1.08272782E-02  0.00000000E+00  0.00000000E+00  0.00000000E+00  0.00000000E+00
  3.12079248E-01  0.00000000E+00  0.00000000E+00  1.15394217E-01  0.00000000E+00
  0.00000000E+00  0.00000000E+00 -1.69772424E-04  0.00000000E+00  0.00000000E+00
 -2.09934930E-01 -6.12514114E-02  0.00000000E+00 -1.10427017E-02 -1.08272782E-02
  2.09934930E-01  6.12514114E-02  0.00000000E+00 -1.10427017E-02  1.08272782E-02
  9.46950209E-03 -2.68964666E-02  1.34315501E-02  0.00000000E+00  0.00000000E+00
  4.05000712E-01  0.00000000E+00  0.00000000E+00  1.44312299E-01 -1.84036923E-02
  0.00000000E+00  0.00000000E+00 -1.26848487E-02  0.00000000E+00  1.67658892E-01
  6.40106353E-02  0.00000000E+00 -1.33129865E-02  2.84186888E-03  1.67658892E-01
  6.40106353E-02  0.00000000E+00  1.33129865E-02  2.84186888E-03  9.46950209E-03
 -2.68964666E-02  1.34315501E-02  0.00000000E+00  0.00000000E+00 -4.05000712E-01
  0.00000000E+00  0.00000000E+00 -1.44312299E-01 -1.84036923E-02  0.00000000E+00
  0.00000000E+00 -1.26848487E-02  0.00000000E+00  1.67658892E-01  6.40106353E-02
  0.00000000E+00  1.33129865E-02 -2.84186888E-03  1.67658892E-01  6.40106353E-02
  0.00000000E+00 -1.33129865E-02 -2.84186888E-03  0.00000000E+00  0.00000000E+00
  0.00000000E+00  0.00000000E+00  2.95469554E-01  0.00000000E+00  0.00000000E+00
  1.18297974E-01  0.00000000E+00  0.00000000E+00  0.00000000E+00  4.15448259E-02
  0.00000000E+00  0.00000000E+00  2.54268629E-01  1.31302889E-01  0.00000000E+00
 -6.75077181E-03 -1.17064815E-02 -2.54268629E-01 -1.31302889E-01  0.00000000E+00
 -6.75077181E-03  1.17064815E-02  0.00000000E+00  0.00000000E+00  0.00000000E+00
  0.00000000E+00 -2.95469554E-01  0.00000000E+00  0.00000000E+00 -1.18297974E-01
  0.00000000E+00  0.00000000E+00  0.00000000E+00  4.15448259E-02  0.00000000E+00
  0.00000000E+00  2.54268629E-01  1.31302889E-01  0.00000000E+00  6.75077181E-03
  1.17064815E-02 -2.54268629E-01 -1.31302889E-01  0.00000000E+00  6.75077181E-03
 -1.17064815E-02  0.00000000E+00  0.00000000E+00  0.00000000E+00  3.83000952E-01
  0.00000000E+00  0.00000000E+00  2.90882369E-01  0.00000000E+00  0.00000000E+00
  0.00000000E+00 -3.26132714E-02  0.00000000E+00  0.00000000E+00  0.00000000E+00
  0.00000000E+00  0.00000000E+00  1.32183893E-02  0.00000000E+00  0.00000000E+00
  0.00000000E+00  0.00000000E+00  1.32183893E-02  0.00000000E+00  0.00000000E+00
  0.00000000E+00  0.00000000E+00  0.00000000E+00  3.83000952E-01  0.00000000E+00
  0.00000000E+00  2.90882369E-01  0.00000000E+00  0.00000000E+00  0.00000000E+00
  3.26132714E-02  0.00000000E+00  0.00000000E+00  0.00000000E+00  0.00000000E+00
  0.00000000E+00  1.32183893E-02  0.00000000E+00  0.00000000E+00  0.00000000E+00
  0.00000000E+00  1.32183893E-02  0.00000000E+00  0.00000000E+00  0.00000000E+00
  0.00000000E+00  0.00000000E+00  3.41441351E-01  0.00000000E+00  0.00000000E+00
  7.62047846E-01  0.00000000E+00  0.00000000E+00  0.00000000E+00  2.49946575E-02
  0.00000000E+00  0.00000000E+00  0.00000000E+00  0.00000000E+00  0.00000000E+00
  1.79508622E-02  0.00000000E+00  0.00000000E+00  0.00000000E+00  0.00000000E+00
  1.79508622E-02  0.00000000E+00  0.00000000E+00  0.00000000E+00  0.00000000E+00
  0.00000000E+00 -3.41441351E-01  0.00000000E+00  0.00000000E+00 -7.62047846E-01
  0.00000000E+00  0.00000000E+00  0.00000000E+00  2.49946575E-02  0.00000000E+00
  0.00000000E+00  0.00000000E+00  0.00000000E+00  0.00000000E+00 -1.79508622E-02
  0.00000000E+00  0.00000000E+00  0.00000000E+00  0.00000000E+00 -1.79508622E-02
  0.00000000E+00  0.00000000E+00 -7.06076263E-02  5.14871575E-02  1.40099742E+00
  0.00000000E+00  0.00000000E+00  1.36182572E-01  0.00000000E+00  0.00000000E+00
  5.34112492E-01  5.12515885E-03  0.00000000E+00  0.00000000E+00 -1.50967481E-02
  0.00000000E+00 -9.62841146E-03 -9.36154479E-01  0.00000000E+00  9.98265804E-03
  9.79408983E-03 -9.62841146E-03 -9.36154479E-01  0.00000000E+00 -9.98265804E-03
  9.79408983E-03 -7.06076263E-02  5.14871575E-02  1.40099742E+00  0.00000000E+00
  0.00000000E+00 -1.36182572E-01  0.00000000E+00  0.00000000E+00 -5.34112492E-01
  5.12515885E-03  0.00000000E+00  0.00000000E+00 -1.50967481E-02  0.00000000E+00
 -9.62841146E-03 -9.36154479E-01  0.00000000E+00 -9.98265804E-03 -9.79408983E-03
 -9.62841146E-03 -9.36154479E-01  0.00000000E+00  9.98265804E-03 -9.79408983E-03
  0.00000000E+00  0.00000000E+00  0.00000000E+00  0.00000000E+00 -2.23595784E-01
  0.00000000E+00  0.00000000E+00 -7.77326092E-01  0.00000000E+00  0.00000000E+00
  0.00000000E+00  9.22777928E-04  0.00000000E+00  0.00000000E+00  2.80108123E-02
  1.18568555E+00  0.00000000E+00 -1.17843263E-02 -7.52627571E-03 -2.80108123E-02
 -1.18568555E+00  0.00000000E+00 -1.17843263E-02  7.52627571E-03  0.00000000E+00
  0.00000000E+00  0.00000000E+00  0.00000000E+00 -2.23595784E-01  0.00000000E+00
  0.00000000E+00 -7.77326092E-01  0.00000000E+00  0.00000000E+00  0.00000000E+00
 -9.22777928E-04  0.00000000E+00  0.00000000E+00 -2.80108123E-02 -1.18568555E+00
  0.00000000E+00 -1.17843263E-02 -7.52627571E-03  2.80108123E-02  1.18568555E+00
  0.00000000E+00 -1.17843263E-02  7.52627571E-03 -8.69388010E-02  8.00200046E-02
  1.57043391E+00  0.00000000E+00  0.00000000E+00  8.22383286E-02  0.00000000E+00
  0.00000000E+00  3.37826733E-01  3.26548183E-04  0.00000000E+00  0.00000000E+00
 -2.60026284E-02  0.00000000E+00 -1.64519937E-02 -1.08831548E+00  0.00000000E+00
  1.84277910E-02  5.64045632E-03 -1.64519937E-02 -1.08831548E+00  0.00000000E+00
 -1.84277910E-02  5.64045632E-03  8.69388010E-02 -8.00200046E-02 -1.57043391E+00
  0.00000000E+00  0.00000000E+00  8.22383286E-02  0.00000000E+00  0.00000000E+00
  3.37826733E-01 -3.26548183E-04  0.00000000E+00  0.00000000E+00  2.60026284E-02
  0.00000000E+00  1.64519937E-02  1.08831548E+00  0.00000000E+00  1.84277910E-02
  5.64045632E-03  1.64519937E-02  1.08831548E+00  0.00000000E+00 -1.84277910E-02
  5.64045632E-03  0.00000000E+00  0.00000000E+00  0.00000000E+00  0.00000000E+00
 -1.94867800E-01  0.00000000E+00  0.00000000E+00 -1.66463404E+00  0.00000000E+00
  0.00000000E+00  0.00000000E+00 -3.34525326E-02  0.00000000E+00  0.00000000E+00
 -2.11242454E-02  1.68890389E+00  0.00000000E+00 -1.55487611E-02 -1.73282859E-02
  2.11242454E-02 -1.68890389E+00  0.00000000E+00 -1.55487611E-02  1.73282859E-02
  0.00000000E+00  0.00000000E+00  0.00000000E+00  0.00000000E+00  1.94867800E-01
  0.00000000E+00  0.00000000E+00  1.66463404E+00  0.00000000E+00  0.00000000E+00
  0.00000000E+00 -3.34525326E-02  0.00000000E+00  0.00000000E+00 -2.11242454E-02
  1.68890389E+00  0.00000000E+00  1.55487611E-02  1.73282859E-02  2.11242454E-02
 -1.68890389E+00  0.00000000E+00  1.55487611E-02 -1.73282859E-02 -6.10711721E-02
 -1.80840570E-02  3.76770072E+00  0.00000000E+00  0.00000000E+00 -1.39428647E-01
  0.00000000E+00  0.00000000E+00 -3.42939332E+00  4.48649994E-02  0.00000000E+00
  0.00000000E+00 -3.76533865E-02  0.00000000E+00  1.14551559E-01  7.20825923E-01
  0.00000000E+00  1.84153153E-02  5.14585728E-03  1.14551559E-01  7.20825923E-01
  0.00000000E+00 -1.84153153E-02  5.14585728E-03  6.10711721E-02  1.80840570E-02
 -3.76770072E+00  0.00000000E+00  0.00000000E+00 -1.39428647E-01  0.00000000E+00
  0.00000000E+00 -3.42939332E+00 -4.48649994E-02  0.00000000E+00  0.00000000E+00
  3.76533865E-02  0.00000000E+00 -1.14551559E-01 -7.20825923E-01  0.00000000E+00
  1.84153153E-02  5.14585728E-03 -1.14551559E-01 -7.20825923E-01  0.00000000E+00
 -1.84153153E-02  5.14585728E-03  4.83353514E-03  1.71953452E-01  4.24727167E-01
  0.00000000E+00  0.00000000E+00 -4.18757463E-01  0.00000000E+00  0.00000000E+00
  1.04327960E+00  4.76696676E-02  0.00000000E+00  0.00000000E+00  3.13403945E-02
  0.00000000E+00 -2.35516590E-01 -5.25076612E-02  0.00000000E+00 -4.61913423E-03
  3.25890401E-02 -2.35516590E-01 -5.25076612E-02  0.00000000E+00  4.61913423E-03
  3.25890401E-02  4.83353514E-03  1.71953452E-01  4.24727167E-01  0.00000000E+00
  0.00000000E+00  4.18757463E-01  0.00000000E+00  0.00000000E+00 -1.04327960E+00
  4.76696676E-02  0.00000000E+00  0.00000000E+00  3.13403945E-02  0.00000000E+00
 -2.35516590E-01 -5.25076612E-02  0.00000000E+00  4.61913423E-03 -3.25890401E-02
 -2.35516590E-01 -5.25076612E-02  0.00000000E+00 -4.61913423E-03 -3.25890401E-02
  0.00000000E+00  0.00000000E+00  0.00000000E+00  0.00000000E+00  5.31986018E-02
  0.00000000E+00  0.00000000E+00 -3.96552708E-01  0.00000000E+00  0.00000000E+00
  0.00000000E+00  1.49136964E-01  0.00000000E+00  0.00000000E+00  5.18503140E-01
 -2.25521471E-01  0.00000000E+00  1.49597292E-02  6.98951541E-02 -5.18503140E-01
  2.25521471E-01  0.00000000E+00  1.49597292E-02 -6.98951541E-02  0.00000000E+00
  0.00000000E+00  0.00000000E+00  0.00000000E+00  5.31986018E-02  0.00000000E+00
  0.00000000E+00 -3.96552708E-01  0.00000000E+00  0.00000000E+00  0.00000000E+00
 -1.49136964E-01  0.00000000E+00  0.00000000E+00 -5.18503140E-01  2.25521471E-01
  0.00000000E+00  1.49597292E-02  6.98951541E-02  5.18503140E-01 -2.25521471E-01
  0.00000000E+00  1.49597292E-02 -6.98951541E-02  0.00000000E+00  0.00000000E+00
  0.00000000E+00  6.69171392E-01  0.00000000E+00  0.00000000E+00 -6.14681881E-01
  0.00000000E+00  0.00000000E+00  0.00000000E+00 -1.14564273E-01  0.00000000E+00
  0.00000000E+00  0.00000000E+00  0.00000000E+00  0.00000000E+00  2.01581841E-02
  0.00000000E+00  0.00000000E+00  0.00000000E+00  0.00000000E+00  2.01581841E-02
  0.00000000E+00  0.00000000E+00  0.00000000E+00  0.00000000E+00  0.00000000E+00
  6.69171392E-01  0.00000000E+00  0.00000000E+00 -6.14681881E-01  0.00000000E+00