0015_q000_m01_k00_opt_uwb97xd_def2svpd/0015_q000_m01_k00_force_uwb97xd_d
Force     UwB97XD                                                     Gen                 
Number of atoms                            I                3
Info1-9                                    I   N=           9
          13           9           0           0           0         100
           5          18       -5802
Full Title                                 C   N=           9
0015_q000_m01_k00_opt_uwb97xd_def2svpd/0015_q000_m01_k00_for
ce_uwb97xd_def2tzvpd stable-force-charge        
Route                                      C   N=          15
#p uwb97xd/chkbasis force guess=read geom=check scf=(maxcycl
e=900,verytightlineq,xqc) integral=grid=ultrafine symmetry=N
one density=current pop=(cm5,hlygat,mbs,npa) output=wfx     
Charge                                     I                0
Multiplicity                               I                1
Number of electrons                        I               10
Number of alpha electrons                  I                5
Number of beta electrons                   I                5
Number of basis functions                  I               58
Number of independent functions            I               58
Number of point charges in /Mol/           I                0
Number of translation vectors              I                0
Atomic numbers                             I   N=           3
           8           1           1
Nuclear charges                            R   N=           3
  8.00000000E+00  1.00000000E+00  1.00000000E+00
Current cartesian coordinates              R   N=           9
  1.41842843E-02  1.04974286E-02 -7.41906477E-03  5.17019619E-01  1.68242884E+00
  4.84748766E-01  1.13969194E+00 -4.55913435E-01 -1.35132803E+00
Number of symbols in /Mol/                 I                0
Int Atom Types                             I   N=           3
           0           0           0
Force Field                                I                0
Atom Types                                 C   N=           3
                                    
MM charges                                 R   N=           3
  0.00000000E+00  0.00000000E+00  0.00000000E+00
Integer atomic weights                     I   N=           3
          16           1           1
Real atomic weights                        R   N=           3
  1.59949146E+01  1.00782504E+00  1.00782504E+00
Atom fragment info                         I   N=           3
           0           0           0
Atom residue num                           I   N=           3
           0           0           0
Nuclear spins                              I   N=           3
           0           1           1
Nuclear ZEff                               R   N=           3
 -5.60000000E+00 -1.00000000E+00 -1.00000000E+00
Nuclear ZNuc                               R   N=           3
  8.00000000E+00  1.00000000E+00  1.00000000E+00
Nuclear QMom                               R   N=           3
  0.00000000E+00  0.00000000E+00  0.00000000E+00
Nuclear GFac                               R   N=           3
  0.00000000E+00  2.79284600E+00  2.79284600E+00
MicOpt                                     I   N=           3
          -1          -1          -1
Number of residues                         I                0
Number of secondary structures             I                0
Number of contracted shells                I               24
Number of primitive shells                 I               37
Pure/Cartesian d shells                    I                0
Pure/Cartesian f shells                    I                0
Highest angular momentum                   I                3
Largest degree of contraction              I                6
Shell types                                I   N=          24
           0           0           0           0           0           0
           1           1           1           1          -2          -2
          -2          -3           0           0           0           1
           1           0           0           0           1           1
Number of primitives per shell             I   N=          24
           6           2           1           1           1           1
           4           1           1           1           1           1
           1           1           3           1           1           1
           1           3           1           1           1           1
Shell to atom map                          I   N=          24
           1           1           1           1           1           1
           1           1           1           1           1           1
           1           1           2           2           2           2
           2           3           3           3           3           3
Primitive exponents                        R   N=          37
  2.70323826E+04  4.05238714E+03  9.22327227E+02  2.61240710E+02  8.53546414E+01
  3.10350352E+01  1.22608607E+01  4.99870760E+00  1.17031082E+00  4.64747410E-01
  1.85045364E-01  7.02880263E-02  6.32749548E+01  1.46270494E+01  4.45012235E+00
  1.52757996E+00  5.29351179E-01  1.74784213E-01  5.11127457E-02  2.31400000E+00
  6.45000000E-01  1.46964774E-01  1.42800000E+00  3.40613410E+01  5.12357460E+00
  1.16466260E+00  3.27230410E-01  1.03072410E-01  8.00000000E-01  9.57741296E-02
  3.40613410E+01  5.12357460E+00  1.16466260E+00  3.27230410E-01  1.03072410E-01
  8.00000000E-01  9.57741296E-02
Contraction coefficients                   R   N=          37
  5.72273352E-04  4.43532335E-03  2.30201077E-02  9.28224907E-02  2.93785000E-01
  6.74016045E-01  6.38399370E-01  3.95345871E-01  1.00000000E+00  1.00000000E+00
  1.00000000E+00  1.00000000E+00  1.20183322E-02  8.30054218E-02  3.19917439E-01
  7.07155429E-01  1.00000000E+00  1.00000000E+00  1.00000000E+00  1.00000000E+00
  1.00000000E+00  1.00000000E+00  1.00000000E+00  2.54393072E-02  1.90085949E-01
  8.52441130E-01  1.00000000E+00  1.00000000E+00  1.00000000E+00  1.00000000E+00
  2.54393072E-02  1.90085949E-01  8.52441130E-01  1.00000000E+00  1.00000000E+00
  1.00000000E+00  1.00000000E+00
Coordinates of each shell                  R   N=          72
  1.41842843E-02  1.04974286E-02 -7.41906477E-03  1.41842843E-02  1.04974286E-02
 -7.41906477E-03  1.41842843E-02  1.04974286E-02 -7.41906477E-03  1.41842843E-02
  1.04974286E-02 -7.41906477E-03  1.41842843E-02  1.04974286E-02 -7.41906477E-03
  1.41842843E-02  1.04974286E-02 -7.41906477E-03  1.41842843E-02  1.04974286E-02
 -7.41906477E-03  1.41842843E-02  1.04974286E-02 -7.41906477E-03  1.41842843E-02
  1.04974286E-02 -7.41906477E-03  1.41842843E-02  1.04974286E-02 -7.41906477E-03
  1.41842843E-02  1.04974286E-02 -7.41906477E-03  1.41842843E-02  1.04974286E-02
 -7.41906477E-03  1.41842843E-02  1.04974286E-02 -7.41906477E-03  1.41842843E-02
  1.04974286E-02 -7.41906477E-03  5.17019619E-01  1.68242884E+00  4.84748766E-01
  5.17019619E-01  1.68242884E+00  4.84748766E-01  5.17019619E-01  1.68242884E+00
  4.84748766E-01  5.17019619E-01  1.68242884E+00  4.84748766E-01  5.17019619E-01
  1.68242884E+00  4.84748766E-01  1.13969194E+00 -4.55913435E-01 -1.35132803E+00
  1.13969194E+00 -4.55913435E-01 -1.35132803E+00  1.13969194E+00 -4.55913435E-01
 -1.35132803E+00  1.13969194E+00 -4.55913435E-01 -1.35132803E+00  1.13969194E+00
 -4.55913435E-01 -1.35132803E+00
Num ILSW                                   I              100
ILSW                                       I   N=         100
           1           0           0           0           2           0
           0           0           0           0        4639          -1
           5           0           0           0           2           0
           0           0           0           0           1           0
           1           1           0           0           0           0
           0           0      100000           0          -1           0
           0           0           0           0           0           0
           0           0           0           1           0           0
           0 -2000000000           1           0           0           0
           0           0         121          52           0           0
           0           0          58           0           0           0
           0           0           0           3           0           1
           0           0           0           0           0           0
           0           0           0           0           0           0
           0           0           0           0           0           0
           0           0           0           0           0           0
           0           0           0           0
Num RLSW                                   I               52
RLSW                                       R   N=          52
  1.00000000E+00  1.00000000E+00  1.00000000E+00  1.00000000E+00  1.00000000E+00
  0.00000000E+00  2.00000000E-01  2.22036000E-01  0.00000000E+00  7.77964000E-01
  0.00000000E+00  2.00000000E-01  0.00000000E+00  0.00000000E+00  1.00000000E+00
  0.00000000E+00  0.00000000E+00  1.00000000E+00  0.00000000E+00  0.00000000E+00
  0.00000000E+00  0.00000000E+00  1.00000000E+00  0.00000000E+00  0.00000000E+00
  0.00000000E+00  0.00000000E+00  1.00000000E+00  0.00000000E+00  0.00000000E+00
  0.00000000E+00  0.00000000E+00  1.00000000E+00  0.00000000E+00  0.00000000E+00
  0.00000000E+00  0.00000000E+00  0.00000000E+00  1.00000000E+00  1.00000000E+00
  0.00000000E+00  1.00000000E+00  0.00000000E+00  0.00000000E+00  0.00000000E+00
  0.00000000E+00  0.00000000E+00  0.00000000E+00  0.00000000E+00  0.00000000E+00
  0.00000000E+00  0.00000000E+00
MxBond                                     I                2
NBond                                      I   N=           3
           2           1           1
IBond                                      I   N=           6
           2           3           1           0           1           0
RBond                                      R   N=           6
  1.00000000E+00  1.00000000E+00  1.00000000E+00  0.00000000E+00  1.00000000E+00
  0.00000000E+00
Virial Ratio                               R      2.004096221028165E+00
SCF Energy                                 R     -7.644088035353465E+01
Total Energy                               R     -7.644088035353465E+01
S**2 after annihilation                    R     -4.085620730620572E-14
RMS Force                                  R      9.301791251576132E-04
RMS Density                                R      2.628768114812666E-10
Job Status                                 I                1
Nuclear derivative order                   I                1
External E-field                           R   N=          35
  0.00000000E+00  0.00000000E+00  0.00000000E+00  0.00000000E+00  0.00000000E+00
  0.00000000E+00  0.00000000E+00  0.00000000E+00  0.00000000E+00  0.00000000E+00
  0.00000000E+00  0.00000000E+00  0.00000000E+00  0.00000000E+00  0.00000000E+00
  0.00000000E+00  0.00000000E+00  0.00000000E+00  0.00000000E+00  0.00000000E+00
  0.00000000E+00  0.00000000E+00  0.00000000E+00  0.00000000E+00  0.00000000E+00
  0.00000000E+00  0.00000000E+00  0.00000000E+00  0.00000000E+00  0.00000000E+00
  0.00000000E+00  0.00000000E+00  0.00000000E+00  0.00000000E+00  0.00000000E+00
IOpCl                                      I                1
IROHF                                      I                0
Alpha Orbital Energies                     R   N=          58
 -1.92552286E+01 -1.11674975E+00 -6.25287763E-01 -4.81288945E-01 -4.06135810E-01
  6.35464205E-02  1.03895013E-01  1.32402133E-01  1.34276896E-01  2.06597252E-01
  2.33402784E-01  2.61963566E-01  2.73322322E-01  2.92805893E-01  3.30038617E-01
  3.44792537E-01  3.84657638E-01  4.94214920E-01  5.01243966E-01  5.30054970E-01
  5.75345058E-01  5.90689096E-01  7.25607831E-01  7.69849530E-01  7.81468485E-01
  7.81574126E-01  9.59535594E-01  1.04414307E+00  1.58455524E+00  1.66481648E+00
  1.67494875E+00  1.79830826E+00  1.82273360E+00  1.91206944E+00  2.16929847E+00
  2.23590188E+00  2.35503343E+00  2.58594771E+00  2.61696789E+00  2.82366183E+00
  2.87673987E+00  2.90110956E+00  3.17950653E+00  3.85441751E+00  4.08072219E+00
  5.18392958E+00  5.32016039E+00  5.49616167E+00  5.54381204E+00  5.57715330E+00
  6.15768166E+00  6.38703603E+00  6.53251429E+00  6.59545137E+00  6.60459034E+00
  7.04485296E+00  7.13350514E+00  4.37565037E+01
Beta Orbital Energies                      R   N=          58
 -1.92552286E+01 -1.11674975E+00 -6.25287763E-01 -4.81288945E-01 -4.06135810E-01
  6.35464205E-02  1.03895013E-01  1.32402133E-01  1.34276896E-01  2.06597252E-01
  2.33402784E-01  2.61963566E-01  2.73322322E-01  2.92805893E-01  3.30038617E-01
  3.44792537E-01  3.84657638E-01  4.94214920E-01  5.01243966E-01  5.30054970E-01
  5.75345058E-01  5.90689096E-01  7.25607831E-01  7.69849530E-01  7.81468485E-01
  7.81574126E-01  9.59535594E-01  1.04414307E+00  1.58455524E+00  1.66481648E+00
  1.67494875E+00  1.79830826E+00  1.82273360E+00  1.91206944E+00  2.16929847E+00
  2.23590188E+00  2.35503343E+00  2.58594771E+00  2.61696789E+00  2.82366183E+00
  2.87673987E+00  2.90110956E+00  3.17950653E+00  3.85441751E+00  4.08072219E+00
  5.18392958E+00  5.32016039E+00  5.49616167E+00  5.54381204E+00  5.57715330E+00
  6.15768166E+00  6.38703603E+00  6.53251429E+00  6.59545137E+00  6.60459034E+00
  7.04485296E+00  7.13350514E+00  4.37565037E+01
Alpha MO coefficients                      R   N=        3364
  4.35357138E-01  6.39612768E-01  3.45729624E-02 -2.57630093E-02  2.06724968E-02
  7.17975604E-03  1.33055427E-03  9.85045602E-04 -6.95983538E-04 -2.14986475E-03
 -1.59160702E-03  1.12454203E-03  2.40684360E-03  1.78184273E-03 -1.25896928E-03
  2.91482102E-04  2.15789002E-04 -1.52469199E-04 -8.04154328E-06 -1.15510051E-04
  1.46694666E-04 -7.59335132E-05  1.99645962E-05  3.52351674E-05  4.71516414E-04
 -5.88857972E-04  3.04584225E-04 -8.76780745E-05  8.03892933E-05 -1.77358738E-04
  6.11488462E-04 -3.25904967E-04 -2.08049929E-04  4.51082767E-05 -1.04402716E-04
  1.20974589E-04  1.66240861E-04 -1.31402355E-04  8.78726583E-05  1.21445660E-04
  8.26966452E-04  5.99117286E-04 -8.87352518E-03 -2.28406275E-04 -8.69313465E-04
 -2.87396165E-04  1.11350314E-03  2.45671368E-03  3.66053609E-04  8.26975148E-04
  5.99115379E-04 -8.87366366E-03 -5.63876970E-04  2.82752482E-04  7.01814832E-04
  1.89558996E-03 -2.29007334E-04 -1.94004706E-03 -9.74919700E-02 -2.29714391E-01
  3.32062141E-01  4.44533865E-01  1.48408130E-01 -5.19584667E-04  6.08311912E-02
  4.50346710E-02 -3.18197263E-02  5.21395334E-02  3.85999962E-02 -2.72732098E-02
  6.40836314E-03  4.74430896E-03 -3.35194652E-03 -2.15478851E-04 -1.59513577E-04
  1.12750918E-04 -4.71534964E-04 -2.90163666E-03  2.56294708E-03 -1.29953919E-03
  1.19511864E-03 -1.57297977E-03 -8.45786402E-03  6.64337448E-03 -3.33955397E-03
  3.99474831E-03 -2.00614791E-04  1.12885729E-03 -2.59628044E-03  1.37219145E-03
  5.23551523E-04 -5.21600830E-04  1.63218961E-03 -1.99297709E-03 -2.77249508E-03
  1.83231443E-03 -1.51703646E-03 -1.68408937E-03  9.28145761E-02  7.24444429E-02
  8.63553978E-03 -3.14158100E-03 -1.53893777E-02 -5.94782577E-03 -2.32880221E-04
 -8.75857705E-04 -2.87009711E-04  9.28152471E-02  7.24451949E-02  8.63567302E-03
 -9.40045148E-03  6.10443725E-03  1.25079575E-02 -5.69865950E-04  2.81573292E-04
  7.06820129E-04 -2.01409041E-07 -4.97701793E-07  8.33470975E-07  9.98325246E-07
  1.50551348E-06  2.23857130E-07 -8.29162484E-02  2.84740767E-01  2.44492222E-01
 -6.56451638E-02  2.25430449E-01  1.93565477E-01 -2.91560452E-02  1.00125178E-01
  8.59721403E-02 -1.56602700E-03  5.37788979E-03  4.61773775E-03 -5.00501837E-03
  6.50433373E-03  7.24483300E-04 -6.63661943E-03  5.04680722E-03 -1.14485145E-02
  1.48780812E-02  1.65715590E-03 -1.51806617E-02  1.15439661E-02 -2.10812702E-03
  2.73968638E-03  3.05278118E-04 -2.79543610E-03  2.12582861E-03 -2.53870611E-03
 -3.15742339E-03  1.08425999E-03 -1.65208095E-03 -1.84617920E-03 -1.45638149E-03
 -1.53354867E-03  1.47006812E-01  1.81530149E-01  2.22803541E-02 -1.08185252E-02
 -1.49609403E-02  1.61901077E-03  2.84654701E-04  6.77174015E-03  3.66331695E-03
 -1.47006397E-01 -1.81530306E-01 -2.22802561E-02  1.41489955E-02  3.52303452E-03
 -1.14403669E-02 -3.42804929E-03  4.02301052E-03  5.60545974E-03  3.57925205E-02
  8.56878039E-02 -1.31269461E-01 -2.02676163E-01 -2.01030595E-01 -2.99707287E-02
  3.07359265E-01  2.27548968E-01 -1.60772321E-01  2.49573706E-01  1.84768319E-01
 -1.30546198E-01  1.60521699E-01  1.18839947E-01 -8.39649289E-02  2.12867516E-02
  1.57593432E-02 -1.11345166E-02 -1.56823399E-03 -4.08076420E-03 -1.64870458E-04
  2.14974067E-04  4.01044129E-03 -6.05719797E-03 -1.08743182E-02 -8.26174976E-03
  4.81182058E-03  1.55212493E-02 -7.58911581E-03 -1.06202143E-02 -1.50374849E-02
  8.47578465E-03  1.94657892E-02  5.82376625E-04  1.10555273E-03 -1.86873404E-03
 -2.76307178E-03  1.10008671E-04 -1.75830945E-03 -4.72659152E-05  8.57054988E-02
  1.23185590E-01  4.59300621E-02  9.82871022E-03 -6.22962435E-03 -1.29894074E-02
 -4.01027754E-03 -1.88595050E-03  2.72685287E-03  8.57047149E-02  1.23184742E-01
  4.59294060E-02  3.35798459E-03  1.59924026E-02  6.09140288E-03 -3.49145771E-03
 -3.66787863E-03  1.19690777E-03  4.52820380E-08  1.12249522E-07 -2.98828568E-07
  4.07322542E-08 -3.37199205E-07  4.65993344E-08  2.99233182E-01 -1.82398967E-01
  3.13906380E-01  2.53403533E-01 -1.54463195E-01  2.65829389E-01  1.91741890E-01
 -1.16877019E-01  2.01144156E-01  2.56862825E-02 -1.56571135E-02  2.69457773E-02
 -2.35705321E-03  1.30434997E-03  2.71672816E-03  3.59907901E-03  3.24279839E-04
 -9.57059334E-03  5.29634302E-03  1.10312382E-02  1.46140024E-02  1.31687488E-03
 -1.19173993E-02  6.59506015E-03  1.37361675E-02  1.81975695E-02  1.63981271E-03
  1.89868233E-03 -2.13188406E-03  2.56044859E-03 -1.60024652E-03  3.43229699E-03
 -7.39450940E-04  1.35082186E-03 -4.22811106E-08  1.90776552E-07 -6.12434347E-09
  1.59596426E-02 -9.72819334E-03  1.67422366E-02  2.42404507E-03 -1.47760073E-03
  2.54298280E-03 -4.16536819E-08  6.73954554E-08  2.00887692E-07  1.59597236E-02
 -9.72835759E-03  1.67423132E-02  2.42394883E-03 -1.47756611E-03  2.54293600E-03
  2.41201285E-02  5.59947811E-02 -5.49436559E-02 -3.78932580E-01  7.43471965E-01
  3.27544121E+00 -8.08539999E-02 -5.98599251E-02  4.22919658E-02 -1.14442651E-01
 -8.47263380E-02  5.98614622E-02  1.95149246E-01  1.44474090E-01 -1.02078346E-01
  4.29418252E-01  3.17912961E-01 -2.24617479E-01  4.17264399E-04  2.96861636E-04
  1.27465594E-03 -6.99871307E-04 -1.07210313E-03  8.29235402E-04  1.97117507E-03
  3.78739134E-04 -2.66023132E-04 -2.12188594E-03 -2.62615806E-04 -5.01879525E-02
  7.72042979E-02 -4.02919597E-02  3.54759806E-04 -2.77945924E-05 -2.88639108E-04
  4.18961359E-04  6.03820665E-04 -1.78926720E-04  3.61987795E-04  1.57529768E-04
  1.52587406E-02  5.52734068E-02 -1.55514300E+00  2.41345589E-03  1.77269186E-02
  7.99984584E-03  2.05400480E-01  5.36116324E-01  1.15718851E-01  1.52581722E-02
  5.52719099E-02 -1.55515196E+00  1.00500948E-02 -8.49951196E-03 -1.45190334E-02
  3.89400278E-01 -9.57651026E-02 -4.26842859E-01 -8.46092946E-09  2.21823254E-09
 -3.35585495E-07  1.73185097E-06 -8.39421951E-06 -1.66989616E-05  2.41166112E-02
 -8.28197811E-02 -7.11128073E-02  3.54507063E-02 -1.21742001E-01 -1.04533341E-01
 -1.24965192E-01  4.29139277E-01  3.68480499E-01 -3.43295479E-01  1.17890773E+00
  1.01226740E+00  3.71145094E-04 -4.82327318E-04 -5.37061783E-05  4.92122116E-04
 -3.74251987E-04 -5.69119871E-04  7.39585339E-04  8.24403504E-05 -7.54685179E-04
  5.73868889E-04 -9.71707438E-02  1.26279542E-01  1.40658140E-02 -1.28847976E-01
  9.79815143E-02  6.38790988E-05 -2.57322228E-04 -4.71709833E-04  6.00009448E-04
  2.71462084E-04 -5.68143097E-04  1.08297097E-04 -1.92061520E-03 -6.05704106E-02
 -2.19062538E+00  6.31382621E-03  1.54229898E-02  2.94311544E-03  2.58992527E-01
  6.08760262E-01  1.06842871E-01  1.92092367E-03  6.05721839E-02  2.19064730E+00
 -1.14634719E-02  2.26172241E-03  1.22417824E-02 -4.58790000E-01  7.73632590E-02
  4.82296182E-01  1.13965275E-07  2.80377810E-07 -5.25154293E-07 -6.63360579E-07
  9.08119793E-07 -2.80672892E-06 -7.49516425E-02  4.56876879E-02 -7.86275773E-02
 -5.75068840E-02  3.50541210E-02 -6.03274078E-02 -3.83502818E-02  2.33772027E-02
 -4.02314343E-02  1.05581681E+00 -6.43593526E-01  1.10760704E+00 -8.70293004E-04
  4.81641862E-04  1.00313592E-03  1.32893921E-03  1.19741256E-04  1.03589745E-02
 -5.73280301E-03 -1.19399007E-02 -1.58179327E-02 -1.42517080E-03 -8.81009469E-02
  4.87554253E-02  1.01547183E-01  1.34527514E-01  1.21207152E-02 -5.80018300E-04
  5.98848306E-04 -7.98192620E-04  4.57861542E-04 -1.00088339E-03  2.60526666E-04
 -3.72920304E-04  2.16087863E-07 -5.54132290E-07  4.15193453E-06  9.88168955E-04
 -6.02220506E-04  1.03665395E-03 -2.81906900E-01  1.71842194E-01 -2.95733999E-01
  2.05810994E-07 -5.45484650E-07  4.66617208E-06  9.88153967E-04 -6.02338700E-04
  1.03642629E-03 -2.81910521E-01  1.71843217E-01 -2.95739208E-01 -1.55205775E-02
 -3.83273005E-02  7.47670876E-02  8.70403558E-02 -1.51270548E-01  2.23356200E-01
 -4.33780483E-02 -3.21130812E-02  2.26892428E-02 -4.33971739E-02 -3.21272672E-02
  2.26995809E-02 -6.38063995E-02 -4.72359893E-02  3.33758590E-02  1.29093131E+00
  9.55709840E-01 -6.75240109E-01 -6.99464827E-04 -1.72487752E-03 -2.22048524E-04
  1.73445230E-04  1.78930941E-03  6.53727240E-03  2.24711575E-02 -7.83133474E-03
  3.55173180E-03 -1.66825835E-02 -5.39265465E-02 -1.01280797E-01 -6.65767398E-02
  3.91977521E-02  1.38153366E-01  3.39555536E-04 -1.06449472E-03  1.30017873E-03
  1.80884193E-03 -1.19428689E-03  9.89921970E-04  1.09761789E-03 -2.47566080E-02
  6.75756770E-02 -5.00994100E-01 -3.40905653E-03 -1.59613402E-02 -6.02477698E-03
 -3.07429176E-01 -3.38229462E-01  9.65208234E-02 -2.47560827E-02  6.75767827E-02
 -5.00983733E-01 -9.84720105E-03  6.14744308E-03  1.29589696E-02 -3.60438542E-01
 -1.56207363E-01  2.52818470E-01  1.72717010E-07  4.54152870E-07 -1.31132203E-06
  1.83403052E-06 -1.76433585E-05 -6.88336138E-05  3.08336752E-02 -1.05892375E-01
 -9.09224573E-02  2.51780460E-02 -8.64673938E-02 -7.42440835E-02  3.16268734E-02
 -1.08630075E-01 -9.32693896E-02  3.07868017E-01 -1.05727079E+00 -9.07817476E-01
 -7.85022281E-04  1.02016974E-03  1.13679818E-04 -1.04096143E-03  7.91555760E-04
 -2.13758646E-02  2.77791375E-02  3.09471153E-03 -2.83445954E-02  2.15540997E-02
  1.11077675E-01 -1.44352969E-01 -1.60811452E-02  1.47290306E-01 -1.12003837E-01
 -4.47264366E-04 -1.19391167E-03 -6.50425601E-04  7.66260311E-04  1.00745304E-04
 -1.40165097E-03 -1.38197339E-04  4.85675593E-02  1.57372411E-01  2.14262124E-01
  2.02521457E-02  3.38851372E-02  3.83854499E-04  3.18707021E-01  1.10955737E+00
  3.40913965E-01 -4.85649608E-02 -1.57369086E-01 -2.14173886E-01 -2.93030913E-02
 -2.80303354E-03  2.63045923E-02 -7.37271741E-01  3.27786164E-01  8.93271867E-01
 -1.07284830E-02 -2.75046914E-02  7.42962500E-02 -7.10437404E-02  6.08840472E-01
  3.77980671E+00  4.41680096E-02  3.26985827E-02 -2.31035584E-02  1.70412515E-02
  1.26161980E-02 -8.91391533E-03  7.80452714E-02  5.77811810E-02 -4.08227541E-02
 -1.02941780E-01 -7.62217905E-02  5.38397811E-02 -2.16627004E-06  6.57951731E-04
 -1.03545472E-03  5.40851145E-04  9.77517004E-06 -5.84108247E-03  1.38703728E-02
 -4.59629255E-02  2.44799123E-02  1.51226992E-02  7.54782710E-02 -1.89847613E-02
  3.43952314E-01 -1.85801964E-01 -1.94394703E-01  3.10632819E-04 -1.18504063E-03
  1.48473656E-03  2.07737257E-03 -1.24807877E-03  1.15460158E-03  1.14318947E-03
 -4.85303717E-02 -4.75610104E-02 -2.45007169E+00  1.28216250E-02 -3.17030237E-02
 -3.06436053E-02  7.83877540E-01  7.11208746E-03 -7.43101491E-01 -4.85301135E-02
 -4.75610417E-02 -2.45004943E+00 -6.91614488E-03  3.60756989E-02  2.75551141E-02
  5.09221824E-01  9.50241084E-01  6.67325618E-02 -4.91516058E-09 -1.17820819E-08
  1.72565362E-08  4.35775217E-08 -3.73816124E-08  3.20177703E-07 -1.57705452E-07
  1.85639637E-07 -2.02085203E-07 -1.04044559E-07  1.57526373E-07 -7.56813253E-08
 -1.57328490E-07  6.61012552E-08 -6.61262804E-07 -3.81877176E-06  2.26000073E-06
 -4.65956051E-06 -3.67398364E-04 -1.30267116E-04 -1.23783933E-04 -7.49649269E-05
 -2.77289750E-04  3.15185418E-02  1.11753578E-02  1.06192627E-02  6.43173723E-03
  2.37882073E-02 -2.88873173E-01 -1.02424014E-01 -9.73272114E-02 -5.89473685E-02
 -2.18023135E-01  1.21881809E-04 -6.45664960E-05 -4.13885608E-05  1.66747651E-07
 -2.13257379E-05  4.52768874E-05 -1.15596157E-04 -1.14237533E-07 -6.82167144E-08
  1.52942960E-06  1.26189517E-02 -7.69195766E-03  1.32377648E-02  1.01546084E+00
 -6.18982214E-01  1.06525719E+00  2.39922770E-08 -2.86111511E-08 -1.88302768E-06
 -1.26188459E-02  7.69192226E-03 -1.32376305E-02 -1.01545446E+00  6.18977434E-01
 -1.06525085E+00 -1.41828977E-02 -3.52754035E-02  7.74241158E-02 -2.24243660E-02
  9.77858281E-01  4.94413079E+00  1.60751632E-01  1.19009991E-01 -8.40848737E-02
  4.44006630E-02  3.28721603E-02 -2.32243233E-02  8.53126980E-01  6.31599756E-01
 -4.46247246E-01  1.18674243E+00  8.78574206E-01 -6.20759449E-01  1.55340970E-04
  1.83034985E-03 -2.20865679E-03  1.14052827E-03 -3.88104037E-04  1.40069486E-03
  1.04193163E-02 -1.04200439E-02  5.32557886E-03 -3.53900070E-03 -3.44612880E-02
 -4.82561175E-02 -6.82433514E-02  3.84681171E-02  8.83938049E-02  5.22108073E-04
 -2.01240588E-04 -8.11841488E-06 -9.12957578E-05 -7.79322805E-04 -1.70540286E-04
  7.42622791E-04 -4.68189226E-02 -1.11155849E-01 -3.21441659E+00 -2.21962057E-02
 -3.06832013E-02  3.32978679E-03 -4.76373531E-01  2.00664104E-01  5.70702676E-01
 -4.68177292E-02 -1.11154517E-01 -3.21440134E+00 -2.90244438E-02 -7.23629909E-03
  2.34629275E-02 -2.11286632E-01 -7.09733504E-01 -2.10990121E-01 -1.73149943E-08
 -4.75309889E-08  1.51979952E-07 -3.98312365E-07  3.21554225E-06  3.05797608E-06
  8.94043272E-02 -5.44970926E-02  9.37885558E-02  5.47560034E-03 -3.33764550E-03
  5.74404188E-03  5.66609754E-01 -3.45381102E-01  5.94395254E-01  1.00247684E+00
 -6.11067709E-01  1.05163734E+00  6.84481312E-04 -3.78813038E-04 -7.88973200E-04
 -1.04522521E-03 -9.41967691E-05  7.88397553E-03 -4.36289135E-03 -9.08710775E-03
 -1.20384867E-02 -1.08468591E-03 -6.29140306E-02  3.48148441E-02  7.25139521E-02
  9.60651639E-02  8.65494521E-03  9.59320635E-04 -3.73784314E-04  1.50845661E-03
 -3.92878728E-04  1.09518218E-03 -8.38499474E-04  1.49191546E-04  4.08976466E-08
 -1.88541427E-08 -2.88734539E-06 -1.25889952E-02  7.67371796E-03 -1.32063627E-02
 -9.43906254E-01  5.75367061E-01 -9.90195049E-01 -7.24781925E-10 -8.93113781E-08
 -2.46725770E-06 -1.25890695E-02  7.67378371E-03 -1.32064191E-02 -9.43920109E-01
  5.75374565E-01 -9.90210576E-01 -3.38810069E-02 -9.02601989E-02  2.58762856E-01
 -4.03004415E-01  4.03154422E+00  2.28851109E+00  4.02135400E-02  2.97754710E-02
 -2.10324816E-02  8.12595157E-02  6.01607045E-02 -4.25036097E-02  3.17512564E-01
  2.35092224E-01 -1.66068282E-01 -5.16599405E-01 -3.82444198E-01  2.70224265E-01
 -3.94744797E-04  7.15008845E-05 -1.75586810E-03  9.49358596E-04  1.01657004E-03
 -5.33975373E-03 -2.55827537E-02  1.76744557E-02 -8.79040201E-03  1.35800719E-02
  3.56969049E-03 -4.76144255E-02  8.91516597E-02 -4.68462971E-02 -9.49338439E-03
 -8.37189188E-04  2.48643079E-03 -3.01260944E-03 -4.18359989E-03  2.84279136E-03
 -2.27800583E-03 -2.61527925E-03 -2.80726168E-02 -3.20702294E-01 -2.34419877E+00
  5.65393851E-03  1.13650637E-02  1.21425418E-03  7.72664609E-01  1.68687439E+00
  2.43637057E-01 -2.80705509E-02 -3.20692342E-01 -2.34405837E+00  9.09352507E-03
 -4.47158432E-04 -8.92822812E-03  1.30675215E+00 -1.47379342E-01 -1.33130170E+00
  5.19301285E-07  1.39511516E-06 -4.27174173E-06  7.23911461E-06 -6.86261524E-05
 -6.50103326E-05 -5.07627629E-02  1.74323033E-01  1.49682509E-01 -2.24613614E-02
  7.71309260E-02  6.62293483E-02 -3.61888630E-01  1.24274868E+00  1.06708730E+00
 -3.43617895E-01  1.18004183E+00  1.01323387E+00  1.57213593E-03 -2.04307537E-03
 -2.27591616E-04  2.08465507E-03 -1.58525273E-03 -1.70642749E-02  2.21764329E-02
  2.47003389E-03 -2.26271891E-02  1.72066175E-02 -3.45259032E-02  4.48691608E-02
  4.99482674E-03 -4.57791929E-02  3.48142716E-02 -2.00183202E-03 -2.57803016E-03
  7.38419115E-04 -1.15617253E-03 -1.39671466E-03 -1.30706169E-03 -1.19088051E-03
 -2.23074580E-02 -2.65344809E-01 -3.67294826E+00  2.86793339E-03 -9.58113603E-03
 -8.30113756E-03  1.29544391E+00  1.02854548E+00 -6.37237027E-01  2.23076303E-02
  2.65352072E-01  3.67306460E+00  2.73990558E-03 -9.67628418E-03 -8.23434545E-03
 -1.32877395E+00 -9.14221777E-01  7.35438422E-01  2.47238855E-07  6.82460177E-07
 -2.40767173E-06  5.48132874E-06 -4.65261366E-05 -4.89115707E-05 -3.44532603E-02
  1.18314034E-01  1.01590612E-01 -1.18223703E-02  4.05986917E-02  3.48601060E-02
 -3.24340080E-01  1.11379527E+00  9.56363984E-01  3.01253127E-01 -1.03455325E+00
 -8.88311436E-01  3.22851515E-03 -4.19562701E-03 -4.67362539E-04  4.28100014E-03
 -3.25544657E-03  2.89679261E-03 -3.76441655E-03 -4.19455264E-04  3.84118140E-03
 -2.92089350E-03 -7.31505022E-02  9.50651188E-02  1.05895240E-02 -9.69982013E-02
  7.37605123E-02 -1.10019278E-03 -1.92142849E-04  2.02182988E-03 -2.66609978E-03
 -1.58567515E-03  1.48076190E-03 -9.07989240E-04 -6.03860034E-02 -2.34240662E-01
 -7.60566846E+00 -7.69438838E-03 -1.32486060E-02 -3.63416748E-04 -9.16194988E-01
  3.24939880E+00  2.76147215E+00  6.03853495E-02  2.34242203E-01  7.60575695E+00
  1.13131928E-02  8.23070430E-04 -1.03061515E-02 -9.65591730E-01  3.21284997E+00
  2.78732304E+00 -1.28865754E-07 -2.60779030E-07 -5.10767886E-07  5.99590684E-06
 -6.17253325E-06 -7.94579810E-05 -1.48517739E-02  5.10007493E-02  4.37920942E-02
 -3.08378709E-02  1.05903361E-01  9.09328169E-02  2.59041133E-01 -8.89589214E-01
 -7.63839481E-01  2.03402562E-01 -6.98573592E-01 -5.99809452E-01  8.27743807E-03
 -1.07567183E-02 -1.19838728E-03  1.09758729E-02 -8.34654565E-03  2.25316542E-02
 -2.92814816E-02 -3.26127232E-03  2.98767312E-02 -2.27195047E-02  7.17224910E-01