neutral optimization                                                    
FOpt      UB3LYP                                                      Aug-CC-pVTZ         
Number of atoms                            I                6
Info1-9                                    I   N=           9
          22          15           0           0           0         110
           2          18        -502
Full Title                                 C   N=           2
neutral optimization    
Route                                      C   N=           2
# opt ub3lyp/aug-cc-pvtz
Charge                                     I                0
Multiplicity                               I                1
Number of electrons                        I               16
Number of alpha electrons                  I                8
Number of beta electrons                   I                8
Number of basis functions                  I              184
Number of independent functions            I              184
Number of point charges in /Mol/           I                0
Number of translation vectors              I                0
Atomic numbers                             I   N=           6
           6           1           1           6           1           1
Nuclear charges                            R   N=           6
  6.00000000E+00  1.00000000E+00  1.00000000E+00  6.00000000E+00  1.00000000E+00
  1.00000000E+00
Current cartesian coordinates              R   N=          18
  1.23259516E-32  0.00000000E+00  1.25179332E+00  0.00000000E+00  1.74006999E+00
  2.32755241E+00 -2.13097115E-16 -1.74006999E+00  2.32755241E+00  1.53300468E-16
  0.00000000E+00 -1.25179332E+00 -2.13097115E-16 -1.74006999E+00 -2.32755241E+00
  2.85042961E-16  1.74006999E+00 -2.32755241E+00
Number of symbols in /Mol/                 I                0
Int Atom Types                             I   N=           6
           0           0           0           0           0           0
Force Field                                I                0
Atom Types                                 C   N=           6
                                                            
            
MM charges                                 R   N=           6
  0.00000000E+00  0.00000000E+00  0.00000000E+00  0.00000000E+00  0.00000000E+00
  0.00000000E+00
Integer atomic weights                     I   N=           6
          12           1           1          12           1           1
Real atomic weights                        R   N=           6
  1.20000000E+01  1.00782504E+00  1.00782504E+00  1.20000000E+01  1.00782504E+00
  1.00782504E+00
Atom fragment info                         I   N=           6
           0           0           0           0           0           0
Atom residue num                           I   N=           6
           0           0           0           0           0           0
Nuclear spins                              I   N=           6
           0           1           1           0           1           1
Nuclear ZEff                               R   N=           6
 -3.60000000E+00 -1.00000000E+00 -1.00000000E+00 -3.60000000E+00 -1.00000000E+00
 -1.00000000E+00
Nuclear ZNuc                               R   N=           6
  6.00000000E+00  1.00000000E+00  1.00000000E+00  6.00000000E+00  1.00000000E+00
  1.00000000E+00
Nuclear QMom                               R   N=           6
  0.00000000E+00  0.00000000E+00  0.00000000E+00  0.00000000E+00  0.00000000E+00
  0.00000000E+00
Nuclear GFac                               R   N=           6
  0.00000000E+00  2.79284600E+00  2.79284600E+00  0.00000000E+00  2.79284600E+00
  2.79284600E+00
MicOpt                                     I   N=           6
          -1          -1          -1          -1          -1          -1
Number of residues                         I                0
Number of secondary structures             I                0
Redundant internal dimensions              I   N=           4
          15           5           6           4
Redundant internal coordinate indices      I   N=          60
           1           2           0           0           1           3
           0           0           1           4           0           0
           4           5           0           0           4           6
           0           0           2           1           3           0
           2           1           4           0           3           1
           4           0           1           4           5           0
           1           4           6           0           5           4
           6           0           2           1           4           5
           2           1           4           6           3           1
           4           5           3           1           4           6
Redundant internal coordinates             R   N=          15
  2.04575199E+00  2.04575199E+00  2.50358664E+00  2.04575199E+00  2.04575199E+00
  2.03416393E+00  2.12451069E+00  2.12451069E+00  2.12451069E+00  2.12451069E+00
  2.03416393E+00  3.14159265E+00 -0.00000000E+00  0.00000000E+00  3.14159265E+00
ZRed-IntVec                                I   N=          15
           0           0           0           0           0           0
           0           0           0           0           0           0
           0           0           0
ZRed-FPVec                                 R   N=          15
  0.00000000E+00  0.00000000E+00  0.00000000E+00  0.00000000E+00  0.00000000E+00
  0.00000000E+00  0.00000000E+00  0.00000000E+00  0.00000000E+00  0.00000000E+00
  0.00000000E+00  0.00000000E+00  0.00000000E+00  0.00000000E+00  0.00000000E+00
ZRed-Constraint1                           R   N=          15
  1.88972612E+00  1.88972612E+00  2.51333575E+00  1.88972612E+00  1.88972612E+00
  2.12616009E+00  2.07851261E+00  2.07851261E+00  2.07851261E+00  2.07851261E+00
  2.12616009E+00  3.14159265E+00  0.00000000E+00  0.00000000E+00  3.14159265E+00
ZRed-Constraint2                           R   N=          15
  0.00000000E+00  0.00000000E+00  0.00000000E+00  0.00000000E+00  0.00000000E+00
  0.00000000E+00  0.00000000E+00  0.00000000E+00  0.00000000E+00  0.00000000E+00
  0.00000000E+00  0.00000000E+00  0.00000000E+00  0.00000000E+00  0.00000000E+00
SymInf integers                            I   N=          26
           4           8           1           1           1          -1
          -1           1          -1           1          -1           1
          -1          -1          -1           1           1           1
          -1           1           1           1          -1          -1
          -1          -1
RotTr to input orientation                 R   N=          12
  6.12323400E-17  8.54794201E-33 -1.00000000E+00 -1.39598487E-16  1.00000000E+00
  0.00000000E+00  1.00000000E+00  1.39598487E-16  6.12323400E-17  0.00000000E+00
  2.77555756E-17 -2.43167782E-16
Number of contracted shells                I               64
Number of primitive shells                 I               98
Pure/Cartesian d shells                    I                0
Pure/Cartesian f shells                    I                0
Highest angular momentum                   I                3
Largest degree of contraction              I                7
Shell types                                I   N=          64
           0           0           0           0           0           1
           1           1           1          -2          -2          -2
          -3          -3           0           0           0           0
           1           1           1          -2          -2           0
           0           0           0           1           1           1
          -2          -2           0           0           0           0
           0           1           1           1           1          -2
          -2          -2          -3          -3           0           0
           0           0           1           1           1          -2
          -2           0           0           0           0           1
           1           1          -2          -2
Number of primitives per shell             I   N=          64
           7           6           1           1           1           3
           1           1           1           1           1           1
           1           1           3           1           1           1
           1           1           1           1           1           3
           1           1           1           1           1           1
           1           1           7           6           1           1
           1           3           1           1           1           1
           1           1           1           1           3           1
           1           1           1           1           1           1
           1           3           1           1           1           1
           1           1           1           1
Shell to atom map                          I   N=          64
           1           1           1           1           1           1
           1           1           1           1           1           1
           1           1           2           2           2           2
           2           2           2           2           2           3
           3           3           3           3           3           3
           3           3           4           4           4           4
           4           4           4           4           4           4
           4           4           4           4           5           5
           5           5           5           5           5           5
           5           6           6           6           6           6
           6           6           6           6
Primitive exponents                        R   N=          98
  8.23600000E+03  1.23500000E+03  2.80800000E+02  7.92700000E+01  2.55900000E+01
  8.99700000E+00  3.31900000E+00  2.80800000E+02  7.92700000E+01  2.55900000E+01
  8.99700000E+00  3.31900000E+00  3.64300000E-01  9.05900000E-01  1.28500000E-01
  4.40200000E-02  1.87100000E+01  4.13300000E+00  1.20000000E+00  3.82700000E-01
  1.20900000E-01  3.56900000E-02  1.09700000E+00  3.18000000E-01  1.00000000E-01
  7.61000000E-01  2.68000000E-01  3.38700000E+01  5.09500000E+00  1.15900000E+00
  3.25800000E-01  1.02700000E-01  2.52600000E-02  1.40700000E+00  3.88000000E-01
  1.02000000E-01  1.05700000E+00  2.47000000E-01  3.38700000E+01  5.09500000E+00
  1.15900000E+00  3.25800000E-01  1.02700000E-01  2.52600000E-02  1.40700000E+00
  3.88000000E-01  1.02000000E-01  1.05700000E+00  2.47000000E-01  8.23600000E+03
  1.23500000E+03  2.80800000E+02  7.92700000E+01  2.55900000E+01  8.99700000E+00
  3.31900000E+00  2.80800000E+02  7.92700000E+01  2.55900000E+01  8.99700000E+00
  3.31900000E+00  3.64300000E-01  9.05900000E-01  1.28500000E-01  4.40200000E-02
  1.87100000E+01  4.13300000E+00  1.20000000E+00  3.82700000E-01  1.20900000E-01
  3.56900000E-02  1.09700000E+00  3.18000000E-01  1.00000000E-01  7.61000000E-01
  2.68000000E-01  3.38700000E+01  5.09500000E+00  1.15900000E+00  3.25800000E-01
  1.02700000E-01  2.52600000E-02  1.40700000E+00  3.88000000E-01  1.02000000E-01
  1.05700000E+00  2.47000000E-01  3.38700000E+01  5.09500000E+00  1.15900000E+00
  3.25800000E-01  1.02700000E-01  2.52600000E-02  1.40700000E+00  3.88000000E-01
  1.02000000E-01  1.05700000E+00  2.47000000E-01
Contraction coefficients                   R   N=          98
  5.41978320E-04  4.19287382E-03  2.15221621E-02  8.35343220E-02  2.39582846E-01
  4.42852842E-01  3.51799562E-01 -5.94922494E-05 -1.14815831E-03 -1.00191374E-02
 -6.12194923E-02 -1.73269854E-01  1.07291519E+00  1.00000000E+00  1.00000000E+00
  1.00000000E+00  3.94263872E-02  2.44088985E-01  8.15492009E-01  1.00000000E+00
  1.00000000E+00  1.00000000E+00  1.00000000E+00  1.00000000E+00  1.00000000E+00
  1.00000000E+00  1.00000000E+00  2.54948632E-02  1.90362766E-01  8.52162022E-01
  1.00000000E+00  1.00000000E+00  1.00000000E+00  1.00000000E+00  1.00000000E+00
  1.00000000E+00  1.00000000E+00  1.00000000E+00  2.54948632E-02  1.90362766E-01
  8.52162022E-01  1.00000000E+00  1.00000000E+00  1.00000000E+00  1.00000000E+00
  1.00000000E+00  1.00000000E+00  1.00000000E+00  1.00000000E+00  5.41978320E-04
  4.19287382E-03  2.15221621E-02  8.35343220E-02  2.39582846E-01  4.42852842E-01
  3.51799562E-01 -5.94922494E-05 -1.14815831E-03 -1.00191374E-02 -6.12194923E-02
 -1.73269854E-01  1.07291519E+00  1.00000000E+00  1.00000000E+00  1.00000000E+00
  3.94263872E-02  2.44088985E-01  8.15492009E-01  1.00000000E+00  1.00000000E+00
  1.00000000E+00  1.00000000E+00  1.00000000E+00  1.00000000E+00  1.00000000E+00
  1.00000000E+00  2.54948632E-02  1.90362766E-01  8.52162022E-01  1.00000000E+00
  1.00000000E+00  1.00000000E+00  1.00000000E+00  1.00000000E+00  1.00000000E+00
  1.00000000E+00  1.00000000E+00  2.54948632E-02  1.90362766E-01  8.52162022E-01
  1.00000000E+00  1.00000000E+00  1.00000000E+00  1.00000000E+00  1.00000000E+00
  1.00000000E+00  1.00000000E+00  1.00000000E+00
Coordinates of each shell                  R   N=         192
  1.23259516E-32  0.00000000E+00  1.25179332E+00  1.23259516E-32  0.00000000E+00
  1.25179332E+00  1.23259516E-32  0.00000000E+00  1.25179332E+00  1.23259516E-32
  0.00000000E+00  1.25179332E+00  1.23259516E-32  0.00000000E+00  1.25179332E+00
  1.23259516E-32  0.00000000E+00  1.25179332E+00  1.23259516E-32  0.00000000E+00
  1.25179332E+00  1.23259516E-32  0.00000000E+00  1.25179332E+00  1.23259516E-32
  0.00000000E+00  1.25179332E+00  1.23259516E-32  0.00000000E+00  1.25179332E+00
  1.23259516E-32  0.00000000E+00  1.25179332E+00  1.23259516E-32  0.00000000E+00
  1.25179332E+00  1.23259516E-32  0.00000000E+00  1.25179332E+00  1.23259516E-32
  0.00000000E+00  1.25179332E+00  0.00000000E+00  1.74006999E+00  2.32755241E+00
  0.00000000E+00  1.74006999E+00  2.32755241E+00  0.00000000E+00  1.74006999E+00
  2.32755241E+00  0.00000000E+00  1.74006999E+00  2.32755241E+00  0.00000000E+00
  1.74006999E+00  2.32755241E+00  0.00000000E+00  1.74006999E+00  2.32755241E+00
  0.00000000E+00  1.74006999E+00  2.32755241E+00  0.00000000E+00  1.74006999E+00
  2.32755241E+00  0.00000000E+00  1.74006999E+00  2.32755241E+00 -2.13097115E-16
 -1.74006999E+00  2.32755241E+00 -2.13097115E-16 -1.74006999E+00  2.32755241E+00
 -2.13097115E-16 -1.74006999E+00  2.32755241E+00 -2.13097115E-16 -1.74006999E+00
  2.32755241E+00 -2.13097115E-16 -1.74006999E+00  2.32755241E+00 -2.13097115E-16
 -1.74006999E+00  2.32755241E+00 -2.13097115E-16 -1.74006999E+00  2.32755241E+00
 -2.13097115E-16 -1.74006999E+00  2.32755241E+00 -2.13097115E-16 -1.74006999E+00
  2.32755241E+00  1.53300468E-16  0.00000000E+00 -1.25179332E+00  1.53300468E-16
  0.00000000E+00 -1.25179332E+00  1.53300468E-16  0.00000000E+00 -1.25179332E+00
  1.53300468E-16  0.00000000E+00 -1.25179332E+00  1.53300468E-16  0.00000000E+00
 -1.25179332E+00  1.53300468E-16  0.00000000E+00 -1.25179332E+00  1.53300468E-16
  0.00000000E+00 -1.25179332E+00  1.53300468E-16  0.00000000E+00 -1.25179332E+00
  1.53300468E-16  0.00000000E+00 -1.25179332E+00  1.53300468E-16  0.00000000E+00
 -1.25179332E+00  1.53300468E-16  0.00000000E+00 -1.25179332E+00  1.53300468E-16
  0.00000000E+00 -1.25179332E+00  1.53300468E-16  0.00000000E+00 -1.25179332E+00
  1.53300468E-16  0.00000000E+00 -1.25179332E+00 -2.13097115E-16 -1.74006999E+00
 -2.32755241E+00 -2.13097115E-16 -1.74006999E+00 -2.32755241E+00 -2.13097115E-16
 -1.74006999E+00 -2.32755241E+00 -2.13097115E-16 -1.74006999E+00 -2.32755241E+00
 -2.13097115E-16 -1.74006999E+00 -2.32755241E+00 -2.13097115E-16 -1.74006999E+00
 -2.32755241E+00 -2.13097115E-16 -1.74006999E+00 -2.32755241E+00 -2.13097115E-16
 -1.74006999E+00 -2.32755241E+00 -2.13097115E-16 -1.74006999E+00 -2.32755241E+00
  2.85042961E-16  1.74006999E+00 -2.32755241E+00  2.85042961E-16  1.74006999E+00
 -2.32755241E+00  2.85042961E-16  1.74006999E+00 -2.32755241E+00  2.85042961E-16
  1.74006999E+00 -2.32755241E+00  2.85042961E-16  1.74006999E+00 -2.32755241E+00
  2.85042961E-16  1.74006999E+00 -2.32755241E+00  2.85042961E-16  1.74006999E+00
 -2.32755241E+00  2.85042961E-16  1.74006999E+00 -2.32755241E+00  2.85042961E-16
  1.74006999E+00 -2.32755241E+00
Num ILSW                                   I              100
ILSW                                       I   N=         100
           1           0           0           1           2           0
           0           0           0           0         402          -1
           5           0           0           0           2           0
           0           0           1           0           1           0
           1           0           0           0           0           0
           0           0      100000           0          -1           0
           0           0           0           0           0           0
           0           0           0           1           0           0
           0 -2000000000           1           0           0           0
           0           0           4          52           0           0
           0           0           5           0           0           0
           0           0           0           0           0           1
           0           0           0           0           0           0
           0           0           0           0           0           0
           0           0           0           0           0           0
           0           0           0           0           0           0
           0           0           0           0
Num RLSW                                   I               52
RLSW                                       R   N=          52
  8.00000000E-01  7.20000000E-01  1.00000000E+00  8.10000000E-01  2.00000000E-01
  0.00000000E+00  0.00000000E+00  1.00000000E+00  0.00000000E+00  0.00000000E+00
  0.00000000E+00  0.00000000E+00  1.00000000E+00  0.00000000E+00  0.00000000E+00
  0.00000000E+00  0.00000000E+00  1.00000000E+00  0.00000000E+00  0.00000000E+00
  0.00000000E+00  0.00000000E+00  1.00000000E+00  0.00000000E+00  0.00000000E+00
  0.00000000E+00  0.00000000E+00  1.00000000E+00  0.00000000E+00  0.00000000E+00
  0.00000000E+00  0.00000000E+00  1.00000000E+00  0.00000000E+00  0.00000000E+00
  0.00000000E+00  0.00000000E+00  0.00000000E+00  1.00000000E+00  1.00000000E+00
  0.00000000E+00  1.00000000E+00  0.00000000E+00  0.00000000E+00  0.00000000E+00
  0.00000000E+00  0.00000000E+00  0.00000000E+00  0.00000000E+00  0.00000000E+00
  0.00000000E+00  0.00000000E+00
MxBond                                     I                3
NBond                                      I   N=           6
           3           1           1           3           1           1
IBond                                      I   N=          18
           2           3           4           1           0           0
           1           0           0           1           5           6
           4           0           0           4           0           0
RBond                                      R   N=          18
  1.00000000E+00  1.00000000E+00  2.00000000E+00  1.00000000E+00  0.00000000E+00
  0.00000000E+00  1.00000000E+00  0.00000000E+00  0.00000000E+00  2.00000000E+00
  1.00000000E+00  1.00000000E+00  1.00000000E+00  0.00000000E+00  0.00000000E+00
  1.00000000E+00  0.00000000E+00  0.00000000E+00
Virial Ratio                               R      2.006987640725713E+00
SCF Energy                                 R     -7.862406334009837E+01
Total Energy                               R     -7.862406334009837E+01
S**2 after annihilation                    R     -9.237055564881401E-14
RMS Force                                  R      4.055675835464024E-05
RMS Density                                R      4.814992291505402E-09
Job Status                                 I                1
Nuclear derivative order                   I                1
External E-field                           R   N=          35
  0.00000000E+00  0.00000000E+00  0.00000000E+00  0.00000000E+00  0.00000000E+00
  0.00000000E+00  0.00000000E+00  0.00000000E+00  0.00000000E+00  0.00000000E+00
  0.00000000E+00  0.00000000E+00  0.00000000E+00  0.00000000E+00  0.00000000E+00
  0.00000000E+00  0.00000000E+00  0.00000000E+00  0.00000000E+00  0.00000000E+00
  0.00000000E+00  0.00000000E+00  0.00000000E+00  0.00000000E+00  0.00000000E+00
  0.00000000E+00  0.00000000E+00  0.00000000E+00  0.00000000E+00  0.00000000E+00
  0.00000000E+00  0.00000000E+00  0.00000000E+00  0.00000000E+00  0.00000000E+00
IOpCl                                      I                1
IROHF                                      I                0
Alpha Orbital Energies                     R   N=         184
 -1.01765141E+01 -1.01755256E+01 -7.67499237E-01 -5.85185364E-01 -4.75589254E-01
 -4.27958666E-01 -3.60613046E-01 -2.82278033E-01 -1.09803277E-02 -4.49474699E-03
  1.15722472E-02  1.42892390E-02  4.18710072E-02  4.87512758E-02  6.41913523E-02
  8.31429976E-02  9.08318393E-02  9.25143772E-02  9.37911206E-02  1.13981749E-01
  1.27342925E-01  1.33138830E-01  1.52470324E-01  1.53251095E-01  1.95610804E-01
  2.19257028E-01  2.21728684E-01  2.34968093E-01  2.40023536E-01  2.64756796E-01
  2.89213574E-01  2.91423927E-01  3.05222058E-01  3.07021413E-01  3.07708510E-01
  3.10367672E-01  3.34560569E-01  3.37950712E-01  3.47510060E-01  3.54620641E-01
  3.66473649E-01  3.72852250E-01  3.79136929E-01  4.13107259E-01  4.44936906E-01
  4.61819102E-01  4.81852492E-01  4.94078026E-01  5.25761148E-01  5.97807619E-01
  6.11852890E-01  6.33731758E-01  6.61563551E-01  6.76938985E-01  7.07591679E-01
  7.11181142E-01  7.41109252E-01  7.70406547E-01  7.73818734E-01  7.74391285E-01
  7.77580438E-01  7.93289705E-01  7.96414655E-01  8.16122225E-01  8.16601095E-01
  8.25502183E-01  8.62923746E-01  8.65322792E-01  8.71176617E-01  8.82772263E-01
  9.38824034E-01  9.42468109E-01  9.46378310E-01  9.48005331E-01  9.63781415E-01
  9.81098293E-01  9.91229346E-01  1.00033392E+00  1.00618252E+00  1.02065054E+00
  1.09827977E+00  1.13714992E+00  1.15873476E+00  1.20623156E+00  1.22675901E+00
  1.28833884E+00  1.29568754E+00  1.32368485E+00  1.38281588E+00  1.39275404E+00
  1.39532002E+00  1.42002399E+00  1.46782541E+00  1.49002802E+00  1.53400155E+00
  1.56902683E+00  1.58157444E+00  1.59139401E+00  1.59617092E+00  1.63271682E+00
  1.65909600E+00  1.71495496E+00  1.73524431E+00  1.85465564E+00  1.85686430E+00
  1.87033208E+00  1.87456874E+00  1.89682867E+00  1.90432064E+00  2.02570309E+00
  2.05539643E+00  2.07699383E+00  2.12956326E+00  2.20712888E+00  2.27773479E+00
  2.38252406E+00  2.53557206E+00  2.69375609E+00  2.69613390E+00  2.90443994E+00
  2.93068698E+00  2.93227564E+00  2.95950829E+00  2.96313365E+00  3.02277320E+00
  3.10559498E+00  3.14438559E+00  3.15521509E+00  3.15812741E+00  3.24481865E+00
  3.27532272E+00  3.28871527E+00  3.38663906E+00  3.38925917E+00  3.40196099E+00
  3.41307673E+00  3.47168653E+00  3.50391724E+00  3.50891284E+00  3.55155204E+00
  3.67294536E+00  3.67980367E+00  3.74537286E+00  3.75895041E+00  3.78554955E+00
  3.84605363E+00  3.91314165E+00  3.98115316E+00  4.00801829E+00  4.05374187E+00
  4.05582307E+00  4.19311238E+00  4.21806243E+00  4.22239362E+00  4.28110008E+00
  4.37768862E+00  4.37777093E+00  4.49467715E+00  4.56374178E+00  4.58954796E+00
  4.61778815E+00  4.62226936E+00  4.62834915E+00  4.72773408E+00  4.82714839E+00
  4.89747264E+00  4.91208913E+00  4.95011166E+00  4.97402763E+00  4.98778412E+00
  5.15860109E+00  5.21007748E+00  5.23305058E+00  5.23452561E+00  5.30035430E+00
  5.63683943E+00  5.68822279E+00  6.06888723E+00  6.18552836E+00  6.27326171E+00
  6.35300158E+00  6.60510158E+00  1.60204886E+01  1.64853412E+01
Beta Orbital Energies                      R   N=         184
 -1.01765141E+01 -1.01755256E+01 -7.67499237E-01 -5.85185364E-01 -4.75589254E-01
 -4.27958666E-01 -3.60613046E-01 -2.82278033E-01 -1.09803277E-02 -4.49474699E-03
  1.15722472E-02  1.42892390E-02  4.18710072E-02  4.87512758E-02  6.41913523E-02
  8.31429976E-02  9.08318393E-02  9.25143772E-02  9.37911206E-02  1.13981749E-01
  1.27342925E-01  1.33138830E-01  1.52470324E-01  1.53251095E-01  1.95610804E-01
  2.19257028E-01  2.21728684E-01  2.34968093E-01  2.40023536E-01  2.64756796E-01
  2.89213574E-01  2.91423927E-01  3.05222058E-01  3.07021413E-01  3.07708510E-01
  3.10367672E-01  3.34560569E-01  3.37950712E-01  3.47510060E-01  3.54620641E-01
  3.66473649E-01  3.72852250E-01  3.79136929E-01  4.13107259E-01  4.44936906E-01
  4.61819102E-01  4.81852492E-01  4.94078026E-01  5.25761148E-01  5.97807619E-01
  6.11852890E-01  6.33731758E-01  6.61563551E-01  6.76938985E-01  7.07591679E-01
  7.11181142E-01  7.41109252E-01  7.70406547E-01  7.73818734E-01  7.74391285E-01
  7.77580438E-01  7.93289705E-01  7.96414655E-01  8.16122225E-01  8.16601095E-01
  8.25502183E-01  8.62923746E-01  8.65322792E-01  8.71176617E-01  8.82772263E-01
  9.38824034E-01  9.42468109E-01  9.46378310E-01  9.48005331E-01  9.63781415E-01
  9.81098293E-01  9.91229346E-01  1.00033392E+00  1.00618252E+00  1.02065054E+00
  1.09827977E+00  1.13714992E+00  1.15873476E+00  1.20623156E+00  1.22675901E+00
  1.28833884E+00  1.29568754E+00  1.32368485E+00  1.38281588E+00  1.39275404E+00
  1.39532002E+00  1.42002399E+00  1.46782541E+00  1.49002802E+00  1.53400155E+00
  1.56902683E+00  1.58157444E+00  1.59139401E+00  1.59617092E+00  1.63271682E+00
  1.65909600E+00  1.71495496E+00  1.73524431E+00  1.85465564E+00  1.85686430E+00
  1.87033208E+00  1.87456874E+00  1.89682867E+00  1.90432064E+00  2.02570309E+00
  2.05539643E+00  2.07699383E+00  2.12956326E+00  2.20712888E+00  2.27773479E+00
  2.38252406E+00  2.53557206E+00  2.69375609E+00  2.69613390E+00  2.90443994E+00
  2.93068698E+00  2.93227564E+00  2.95950829E+00  2.96313365E+00  3.02277320E+00
  3.10559498E+00  3.14438559E+00  3.15521509E+00  3.15812741E+00  3.24481865E+00
  3.27532272E+00  3.28871527E+00  3.38663906E+00  3.38925917E+00  3.40196099E+00
  3.41307673E+00  3.47168653E+00  3.50391724E+00  3.50891284E+00  3.55155204E+00
  3.67294536E+00  3.67980367E+00  3.74537286E+00  3.75895041E+00  3.78554955E+00
  3.84605363E+00  3.91314165E+00  3.98115316E+00  4.00801829E+00  4.05374187E+00
  4.05582307E+00  4.19311238E+00  4.21806243E+00  4.22239362E+00  4.28110008E+00
  4.37768862E+00  4.37777093E+00  4.49467715E+00  4.56374178E+00  4.58954796E+00
  4.61778815E+00  4.62226936E+00  4.62834915E+00  4.72773408E+00  4.82714839E+00
  4.89747264E+00  4.91208913E+00  4.95011166E+00  4.97402763E+00  4.98778412E+00
  5.15860109E+00  5.21007748E+00  5.23305058E+00  5.23452561E+00  5.30035430E+00
  5.63683943E+00  5.68822279E+00  6.06888723E+00  6.18552836E+00  6.27326171E+00
  6.35300158E+00  6.60510158E+00  1.60204886E+01  1.64853412E+01
Alpha MO coefficients                      R   N=       33856
  6.90911094E-01  1.18017398E-02  4.20076715E-02 -4.12200312E-02 -4.96677378E-03
  0.00000000E+00  0.00000000E+00 -3.92626497E-04  0.00000000E+00  0.00000000E+00
 -1.13712614E-03  0.00000000E+00  0.00000000E+00 -7.62074385E-03  0.00000000E+00
  0.00000000E+00 -2.84973912E-04  6.97466726E-04  0.00000000E+00  0.00000000E+00
 -1.67747805E-03  0.00000000E+00 -6.50111040E-03  0.00000000E+00  0.00000000E+00
  4.15074711E-03  0.00000000E+00  4.58410067E-03  0.00000000E+00  0.00000000E+00
  5.20792118E-03  0.00000000E+00  3.46445703E-05  0.00000000E+00  0.00000000E+00
 -7.91654690E-04  0.00000000E+00  0.00000000E+00  0.00000000E+00  6.89120444E-03
  0.00000000E+00  0.00000000E+00  4.79693467E-03  0.00000000E+00  0.00000000E+00
  0.00000000E+00  7.40047933E-04  8.33549711E-03  1.33429474E-02  4.41231193E-04
  0.00000000E+00  3.94477458E-04  9.69849832E-06  0.00000000E+00  1.68291822E-03
  2.85892407E-03  0.00000000E+00  1.11988636E-03 -2.79023009E-03 -8.66704696E-05
  0.00000000E+00 -9.82147030E-04  7.72630214E-04  0.00000000E+00 -1.59104891E-03
  0.00000000E+00 -1.05074688E-03  1.62960123E-03  0.00000000E+00  7.40047933E-04
  8.33549711E-03  1.33429474E-02  4.41231193E-04  0.00000000E+00 -3.94477458E-04
  9.69849832E-06  0.00000000E+00 -1.68291822E-03  2.85892407E-03  0.00000000E+00
 -1.11988636E-03 -2.79023009E-03 -8.66704696E-05  0.00000000E+00  9.82147030E-04
  7.72630214E-04  0.00000000E+00 -1.59104891E-03  0.00000000E+00  1.05074688E-03
  1.62960123E-03  0.00000000E+00  6.90911094E-01  1.18017398E-02  4.20076715E-02
 -4.12200312E-02 -4.96677378E-03  0.00000000E+00  0.00000000E+00  3.92626497E-04
  0.00000000E+00  0.00000000E+00  1.13712614E-03  0.00000000E+00  0.00000000E+00
  7.62074385E-03  0.00000000E+00  0.00000000E+00  2.84973912E-04  6.97466726E-04
  0.00000000E+00  0.00000000E+00 -1.67747805E-03  0.00000000E+00 -6.50111040E-03
  0.00000000E+00  0.00000000E+00  4.15074711E-03  0.00000000E+00  4.58410067E-03
  0.00000000E+00  0.00000000E+00  5.20792118E-03  0.00000000E+00 -3.46445703E-05
  0.00000000E+00  0.00000000E+00  7.91654690E-04  0.00000000E+00  0.00000000E+00
  0.00000000E+00 -6.89120444E-03  0.00000000E+00  0.00000000E+00 -4.79693467E-03
  0.00000000E+00  0.00000000E+00  0.00000000E+00  7.40047933E-04  8.33549711E-03
  1.33429474E-02  4.41231193E-04  0.00000000E+00 -3.94477458E-04 -9.69849832E-06
  0.00000000E+00 -1.68291822E-03 -2.85892407E-03  0.00000000E+00 -1.11988636E-03
  2.79023009E-03 -8.66704696E-05  0.00000000E+00 -9.82147030E-04  7.72630214E-04
  0.00000000E+00 -1.59104891E-03  0.00000000E+00 -1.05074688E-03  1.62960123E-03
  0.00000000E+00  7.40047933E-04  8.33549711E-03  1.33429474E-02  4.41231193E-04
  0.00000000E+00  3.94477458E-04 -9.69849832E-06  0.00000000E+00  1.68291822E-03
 -2.85892407E-03  0.00000000E+00  1.11988636E-03  2.79023009E-03 -8.66704696E-05
  0.00000000E+00  9.82147030E-04  7.72630214E-04  0.00000000E+00 -1.59104891E-03
  0.00000000E+00  1.05074688E-03  1.62960123E-03  0.00000000E+00  6.90877065E-01
  8.82127610E-03  3.59997449E-02  9.52456786E-02  9.08222330E-03  0.00000000E+00